18
Lattice="5.612310241546866 0.0 0.0 0.0 4.860403243099165 0.0 0.0 0.0 44.58243212332868" Properties=species:S:1:pos:R:3:tags:I:1:masses:R:1:momenta:R:3 KEmax=23.26679191048647 iter=99 volume=1216.1236359717223 set_wall=T ns_energy=75.40441146634299 ns_P=0.0 config_n_global=99 ns_KE=6.595260131051128 pbc="T T F"
H        1.40307756       0.81006721      20.00000000        3       1.00000000       0.00000000       0.00000000       0.00000000
H        4.20923268       0.81006721      20.00000000        3       1.00000000       0.00000000       0.00000000       0.00000000
H        0.00000000       3.24026883      20.00000000        3       1.00000000       0.00000000       0.00000000       0.00000000
H        2.80615512       3.24026883      20.00000000        3       1.00000000       0.00000000       0.00000000       0.00000000
H        0.00000000       1.62013441      22.29121606        2       1.00000000       0.00000000       0.00000000       0.00000000
H        2.80615512       1.62013441      22.29121606        2       1.00000000       0.00000000       0.00000000       0.00000000
H        1.40307756       4.05033604      22.29121606        2       1.00000000       0.00000000       0.00000000       0.00000000
H        4.20923268       4.05033604      22.29121606        2       1.00000000       0.00000000       0.00000000       0.00000000
H        0.00000000       0.00000000      24.58243212        1       1.00000000       0.00000000       0.00000000       0.00000000
H        2.80615512       0.00000000      24.58243212        1       1.00000000       0.00000000       0.00000000       0.00000000
H        1.40307756       2.43020162      24.58243212        1       1.00000000       0.00000000       0.00000000       0.00000000
H        4.20923268       2.43020162      24.58243212        1       1.00000000       0.00000000       0.00000000       0.00000000
H        2.42795380       4.85249667      38.05734108        0       1.00000000      -1.09316779       1.23087253       0.00697391
H        4.01091968       4.63168066      32.73595163        0       1.00000000       0.47733913       1.71452517      -0.64384561
H        1.95172472       0.48092878      41.60629656        0       1.00000000      -0.12086578      -0.99276561      -0.53673089
H        1.56392211       0.24590540      39.56685568        0       1.00000000      -1.01047483       0.51190099      -0.69104531
H        2.92721843       1.82144489      41.55540029        0       1.00000000      -0.86665676      -0.74952279      -1.09090363
H        1.71573114       3.60040241      31.61148117        0       1.00000000       0.31369584       0.67146392       0.89290902
18
Lattice="5.612310241546866 0.0 0.0 0.0 4.860403243099165 0.0 0.0 0.0 44.58243212332868" Properties=species:S:1:pos:R:3:tags:I:1:masses:R:1:momenta:R:3 KEmax=23.26679191048647 iter=199 volume=1216.1236359717223 set_wall=T ns_energy=13.971969328663175 last_walked_iter_clone=154 ns_P=0.0 config_n_global=199 ns_KE=21.681071123712073 pbc="T T F"
H        1.40307756       0.81006721      20.00000000        3       1.00000000       0.00000000       0.00000000       0.00000000
H        4.20923268       0.81006721      20.00000000        3       1.00000000       0.00000000       0.00000000       0.00000000
H        0.00000000       3.24026883      20.00000000        3       1.00000000       0.00000000       0.00000000       0.00000000
H        2.80615512       3.24026883      20.00000000        3       1.00000000       0.00000000       0.00000000       0.00000000
H        0.00000000       1.62013441      22.29121606        2       1.00000000       0.00000000       0.00000000       0.00000000
H        2.80615512       1.62013441      22.29121606        2       1.00000000       0.00000000       0.00000000       0.00000000
H        1.40307756       4.05033604      22.29121606        2       1.00000000       0.00000000       0.00000000       0.00000000
H        4.20923268       4.05033604      22.29121606        2       1.00000000       0.00000000       0.00000000       0.00000000
H        0.00000000       0.00000000      24.58243212        1       1.00000000       0.00000000       0.00000000       0.00000000
H        2.80615512       0.00000000      24.58243212        1       1.00000000       0.00000000       0.00000000       0.00000000
H        1.40307756       2.43020162      24.58243212        1       1.00000000       0.00000000       0.00000000       0.00000000
H        4.20923268       2.43020162      24.58243212        1       1.00000000       0.00000000       0.00000000       0.00000000
H        0.34187911       3.87284164      37.95197192        0       1.00000000      -1.32097541       0.66931267      -0.46297471
H        4.08556899       0.91029863      26.61394716        0       1.00000000      -0.22006284       0.40611201       1.80982020
H        2.57081690       1.70310441      33.74527847        0       1.00000000      -2.26699973      -1.83930573       1.31346126
H        3.70481982       4.01326208      42.07850630        0       1.00000000      -0.41618939      -0.03047841      -0.13006915
H        3.86813708       3.63388907      39.85580342        0       1.00000000       1.48714577      -0.13452826       4.08785863
H        1.17029672       1.87512174      39.89467836        0       1.00000000       1.40204107       1.05373905       2.23854625
18
Lattice="5.612310241546866 0.0 0.0 0.0 4.860403243099165 0.0 0.0 0.0 44.58243212332868" Properties=species:S:1:pos:R:3:tags:I:1:masses:R:1:momenta:R:3 KEmax=23.26679191048647 iter=299 volume=1216.1236359717223 set_wall=T ns_energy=12.308897986114866 last_walked_iter_clone=31 ns_P=0.0 config_n_global=299 ns_KE=19.362521067705895 pbc="T T F"
H        1.40307756       0.81006721      20.00000000        3       1.00000000       0.00000000       0.00000000       0.00000000
H        4.20923268       0.81006721      20.00000000        3       1.00000000       0.00000000       0.00000000       0.00000000
H        0.00000000       3.24026883      20.00000000        3       1.00000000       0.00000000       0.00000000       0.00000000
H        2.80615512       3.24026883      20.00000000        3       1.00000000       0.00000000       0.00000000       0.00000000
H        0.00000000       1.62013441      22.29121606        2       1.00000000       0.00000000       0.00000000       0.00000000
H        2.80615512       1.62013441      22.29121606        2       1.00000000       0.00000000       0.00000000       0.00000000
H        1.40307756       4.05033604      22.29121606        2       1.00000000       0.00000000       0.00000000       0.00000000
H        4.20923268       4.05033604      22.29121606        2       1.00000000       0.00000000       0.00000000       0.00000000
H        0.00000000       0.00000000      24.58243212        1       1.00000000       0.00000000       0.00000000       0.00000000
H        2.80615512       0.00000000      24.58243212        1       1.00000000       0.00000000       0.00000000       0.00000000
H        1.40307756       2.43020162      24.58243212        1       1.00000000       0.00000000       0.00000000       0.00000000
H        4.20923268       2.43020162      24.58243212        1       1.00000000       0.00000000       0.00000000       0.00000000
H        1.78498930       2.35680443      27.16652704        0       1.00000000       2.92918246       0.57426107       1.68546213
H        3.13563657       1.93674311      34.23444577        0       1.00000000      -0.93441185       0.43716238       1.86116181
H        2.24687247       4.51692643      38.57123503        0       1.00000000      -1.32377144       1.67008640       1.83972216
H        0.57983123       2.03438668      38.65228854        0       1.00000000      -0.36547356       1.37127131       0.16765398
H        2.94649950       3.44495067      32.23013590        0       1.00000000       0.31597933       0.18668806       1.50484071
H        4.87469367       3.15232681      33.54312876        0       1.00000000       1.74602378       2.03607262       1.69840560
18
Lattice="5.612310241546866 0.0 0.0 0.0 4.860403243099165 0.0 0.0 0.0 44.58243212332868" Properties=species:S:1:pos:R:3:tags:I:1:masses:R:1:momenta:R:3 KEmax=23.26679191048647 iter=399 volume=1216.1236359717223 set_wall=T ns_energy=10.818663871634635 last_walked_iter_clone=351 ns_P=0.0 config_n_global=399 ns_KE=18.689421938513537 pbc="T T F"
H        1.40307756       0.81006721      20.00000000        3       1.00000000       0.00000000       0.00000000       0.00000000
H        4.20923268       0.81006721      20.00000000        3       1.00000000       0.00000000       0.00000000       0.00000000
H        0.00000000       3.24026883      20.00000000        3       1.00000000       0.00000000       0.00000000       0.00000000
H        2.80615512       3.24026883      20.00000000        3       1.00000000       0.00000000       0.00000000       0.00000000
H        0.00000000       1.62013441      22.29121606        2       1.00000000       0.00000000       0.00000000       0.00000000
H        2.80615512       1.62013441      22.29121606        2       1.00000000       0.00000000       0.00000000       0.00000000
H        1.40307756       4.05033604      22.29121606        2       1.00000000       0.00000000       0.00000000       0.00000000
H        4.20923268       4.05033604      22.29121606        2       1.00000000       0.00000000       0.00000000       0.00000000
H        0.00000000       0.00000000      24.58243212        1       1.00000000       0.00000000       0.00000000       0.00000000
H        2.80615512       0.00000000      24.58243212        1       1.00000000       0.00000000       0.00000000       0.00000000
H        1.40307756       2.43020162      24.58243212        1       1.00000000       0.00000000       0.00000000       0.00000000
H        4.20923268       2.43020162      24.58243212        1       1.00000000       0.00000000       0.00000000       0.00000000
H        1.55660006       2.66826074      35.38703896        0       1.00000000       3.06895665      -2.44581279       0.51413153
H        4.26312015       2.15109220      32.09137691        0       1.00000000      -0.04938729      -0.77544415      -1.13889369
H        1.19620802       4.43896531      38.45369875        0       1.00000000      -0.67952677      -1.69553988      -1.45429289
H        3.47171012       2.25930883      41.77045400        0       1.00000000      -0.31402692       0.25735860      -0.13319044
H       -0.11080402       2.23594091      37.09061029        0       1.00000000      -1.86079759       0.14253588      -0.84212416
H        3.48730299       3.70459132      27.67031417        0       1.00000000       0.18925526      -1.50185223       2.77409175
18
Lattice="5.612310241546866 0.0 0.0 0.0 4.860403243099165 0.0 0.0 0.0 44.58243212332868" Properties=species:S:1:pos:R:3:tags:I:1:masses:R:1:momenta:R:3 KEmax=23.26679191048647 iter=499 volume=1216.1236359717223 set_wall=T ns_energy=9.34382644741294 last_walked_iter_clone=443 ns_P=0.0 config_n_global=499 ns_KE=16.877454981618175 pbc="T T F"
H        1.40307756       0.81006721      20.00000000        3       1.00000000       0.00000000       0.00000000       0.00000000
H        4.20923268       0.81006721      20.00000000        3       1.00000000       0.00000000       0.00000000       0.00000000
H        0.00000000       3.24026883      20.00000000        3       1.00000000       0.00000000       0.00000000       0.00000000
H        2.80615512       3.24026883      20.00000000        3       1.00000000       0.00000000       0.00000000       0.00000000
H        0.00000000       1.62013441      22.29121606        2       1.00000000       0.00000000       0.00000000       0.00000000
H        2.80615512       1.62013441      22.29121606        2       1.00000000       0.00000000       0.00000000       0.00000000
H        1.40307756       4.05033604      22.29121606        2       1.00000000       0.00000000       0.00000000       0.00000000
H        4.20923268       4.05033604      22.29121606        2       1.00000000       0.00000000       0.00000000       0.00000000
H        0.00000000       0.00000000      24.58243212        1       1.00000000       0.00000000       0.00000000       0.00000000
H        2.80615512       0.00000000      24.58243212        1       1.00000000       0.00000000       0.00000000       0.00000000
H        1.40307756       2.43020162      24.58243212        1       1.00000000       0.00000000       0.00000000       0.00000000
H        4.20923268       2.43020162      24.58243212        1       1.00000000       0.00000000       0.00000000       0.00000000
H        1.27021107       2.93907622      42.04381005        0       1.00000000      -0.47831781       0.90818455       0.56441299
H        4.33261348       2.98526446      36.41585698        0       1.00000000       1.44977925      -0.45318034      -0.74911091
H        3.97732014       3.98996663      39.60170828        0       1.00000000      -0.57690949      -1.13691675       0.45210077
H        1.58859110       3.85142131      39.89333881        0       1.00000000      -3.25333736      -1.03714186       1.92136914
H        1.09804269       3.35001937      28.62605043        0       1.00000000      -0.65765624      -2.14602863       1.25205778
H        0.79952191       0.42320502      27.30271328        0       1.00000000      -1.68847856       1.36154786      -1.01126837
18
Lattice="5.612310241546866 0.0 0.0 0.0 4.860403243099165 0.0 0.0 0.0 44.58243212332868" Properties=species:S:1:pos:R:3:tags:I:1:masses:R:1:momenta:R:3 KEmax=23.26679191048647 iter=599 volume=1216.1236359717223 set_wall=T ns_energy=8.159890820071881 last_walked_iter_clone=472 ns_P=0.0 config_n_global=599 ns_KE=16.16941764997899 pbc="T T F"
H        1.40307756       0.81006721      20.00000000        3       1.00000000       0.00000000       0.00000000       0.00000000
H        4.20923268       0.81006721      20.00000000        3       1.00000000       0.00000000       0.00000000       0.00000000
H        0.00000000       3.24026883      20.00000000        3       1.00000000       0.00000000       0.00000000       0.00000000
H        2.80615512       3.24026883      20.00000000        3       1.00000000       0.00000000       0.00000000       0.00000000
H        0.00000000       1.62013441      22.29121606        2       1.00000000       0.00000000       0.00000000       0.00000000
H        2.80615512       1.62013441      22.29121606        2       1.00000000       0.00000000       0.00000000       0.00000000
H        1.40307756       4.05033604      22.29121606        2       1.00000000       0.00000000       0.00000000       0.00000000
H        4.20923268       4.05033604      22.29121606        2       1.00000000       0.00000000       0.00000000       0.00000000
H        0.00000000       0.00000000      24.58243212        1       1.00000000       0.00000000       0.00000000       0.00000000
H        2.80615512       0.00000000      24.58243212        1       1.00000000       0.00000000       0.00000000       0.00000000
H        1.40307756       2.43020162      24.58243212        1       1.00000000       0.00000000       0.00000000       0.00000000
H        4.20923268       2.43020162      24.58243212        1       1.00000000       0.00000000       0.00000000       0.00000000
H        3.17766515       2.88724210      41.01998604        0       1.00000000       1.39048683       0.85032957       2.03604968
H        1.78342551       4.74212396      28.20238546        0       1.00000000      -0.68796163      -0.36414677       1.99279937
H        2.11049718       2.27354889      30.19640804        0       1.00000000      -0.18852156       0.62116400       1.11587195
H        3.70588592       1.61883843      35.85669735        0       1.00000000       1.10854162       2.07556987       1.69365947
H        0.16590701       4.61384032      42.25853201        0       1.00000000      -0.54176474      -0.87538192      -0.01145552
H        2.88747946       3.72452638      34.34367607        0       1.00000000      -0.13429239       1.08483565      -2.93818831
18
Lattice="5.612310241546866 0.0 0.0 0.0 4.860403243099165 0.0 0.0 0.0 44.58243212332868" Properties=species:S:1:pos:R:3:tags:I:1:masses:R:1:momenta:R:3 KEmax=23.26679191048647 iter=699 volume=1216.1236359717223 set_wall=T ns_energy=7.029181226507927 last_walked_iter_clone=625 ns_P=0.0 config_n_global=699 ns_KE=15.0749353691704 pbc="T T F"
H        1.40307756       0.81006721      20.00000000        3       1.00000000       0.00000000       0.00000000       0.00000000
H        4.20923268       0.81006721      20.00000000        3       1.00000000       0.00000000       0.00000000       0.00000000
H        0.00000000       3.24026883      20.00000000        3       1.00000000       0.00000000       0.00000000       0.00000000
H        2.80615512       3.24026883      20.00000000        3       1.00000000       0.00000000       0.00000000       0.00000000
H        0.00000000       1.62013441      22.29121606        2       1.00000000       0.00000000       0.00000000       0.00000000
H        2.80615512       1.62013441      22.29121606        2       1.00000000       0.00000000       0.00000000       0.00000000
H        1.40307756       4.05033604      22.29121606        2       1.00000000       0.00000000       0.00000000       0.00000000
H        4.20923268       4.05033604      22.29121606        2       1.00000000       0.00000000       0.00000000       0.00000000
H        0.00000000       0.00000000      24.58243212        1       1.00000000       0.00000000       0.00000000       0.00000000
H        2.80615512       0.00000000      24.58243212        1       1.00000000       0.00000000       0.00000000       0.00000000
H        1.40307756       2.43020162      24.58243212        1       1.00000000       0.00000000       0.00000000       0.00000000
H        4.20923268       2.43020162      24.58243212        1       1.00000000       0.00000000       0.00000000       0.00000000
H        4.98178121       3.85357030      39.39738013        0       1.00000000       1.62043660      -1.67329493       2.12434313
H        1.14656536       4.61865215      41.41011229        0       1.00000000       0.06477776       0.45129779       0.56699136
H        3.66830344       1.24302643      30.92261945        0       1.00000000       0.23277555      -0.12503327      -2.93809056
H        4.11474844       3.73158586      32.73046190        0       1.00000000      -0.82549338       0.39377143      -2.41452809
H        3.01826152       1.02478877      37.90960946        0       1.00000000      -0.31758456       0.02650655       0.48059280
H        5.35167453       2.39657272      29.24823507        0       1.00000000      -1.76150490      -0.66887337      -0.65612730
18
Lattice="5.612310241546866 0.0 0.0 0.0 4.860403243099165 0.0 0.0 0.0 44.58243212332868" Properties=species:S:1:pos:R:3:tags:I:1:masses:R:1:momenta:R:3 KEmax=23.26679191048647 iter=799 volume=1216.1236359717223 set_wall=T ns_energy=6.113602709350999 last_walked_iter_clone=689 ns_P=0.0 config_n_global=799 ns_KE=13.62758150579893 pbc="T T F"
H        1.40307756       0.81006721      20.00000000        3       1.00000000       0.00000000       0.00000000       0.00000000
H        4.20923268       0.81006721      20.00000000        3       1.00000000       0.00000000       0.00000000       0.00000000
H        0.00000000       3.24026883      20.00000000        3       1.00000000       0.00000000       0.00000000       0.00000000
H        2.80615512       3.24026883      20.00000000        3       1.00000000       0.00000000       0.00000000       0.00000000
H        0.00000000       1.62013441      22.29121606        2       1.00000000       0.00000000       0.00000000       0.00000000
H        2.80615512       1.62013441      22.29121606        2       1.00000000       0.00000000       0.00000000       0.00000000
H        1.40307756       4.05033604      22.29121606        2       1.00000000       0.00000000       0.00000000       0.00000000
H        4.20923268       4.05033604      22.29121606        2       1.00000000       0.00000000       0.00000000       0.00000000
H        0.00000000       0.00000000      24.58243212        1       1.00000000       0.00000000       0.00000000       0.00000000
H        2.80615512       0.00000000      24.58243212        1       1.00000000       0.00000000       0.00000000       0.00000000
H        1.40307756       2.43020162      24.58243212        1       1.00000000       0.00000000       0.00000000       0.00000000
H        4.20923268       2.43020162      24.58243212        1       1.00000000       0.00000000       0.00000000       0.00000000
H        4.28713098       2.04207147      28.92704870        0       1.00000000      -0.10917037      -0.80056503      -1.14021861
H        2.56937051       4.54627490      39.50312804        0       1.00000000      -1.18368748       1.55581334       0.66670804
H        2.42897499       1.60252789      40.74234448        0       1.00000000       0.48015042       1.01963853       0.15780181
H        5.64553626       0.93184546      37.96225647        0       1.00000000       1.61119968      -1.39323172      -2.67867513
H        1.26028443       0.29612722      42.75568806        0       1.00000000       1.39407458      -0.91517657      -1.44899091
H        0.66338961       2.62693361      42.04487539        0       1.00000000       0.04720592       1.11688796      -1.37781321
18
Lattice="5.612310241546866 0.0 0.0 0.0 4.860403243099165 0.0 0.0 0.0 44.58243212332868" Properties=species:S:1:pos:R:3:tags:I:1:masses:R:1:momenta:R:3 KEmax=23.26679191048647 iter=899 volume=1216.1236359717223 set_wall=T ns_energy=5.20903605647467 last_walked_iter_clone=850 ns_P=0.0 config_n_global=899 ns_KE=11.065625332973385 pbc="T T F"
H        1.40307756       0.81006721      20.00000000        3       1.00000000       0.00000000       0.00000000       0.00000000
H        4.20923268       0.81006721      20.00000000        3       1.00000000       0.00000000       0.00000000       0.00000000
H        0.00000000       3.24026883      20.00000000        3       1.00000000       0.00000000       0.00000000       0.00000000
H        2.80615512       3.24026883      20.00000000        3       1.00000000       0.00000000       0.00000000       0.00000000
H        0.00000000       1.62013441      22.29121606        2       1.00000000       0.00000000       0.00000000       0.00000000
H        2.80615512       1.62013441      22.29121606        2       1.00000000       0.00000000       0.00000000       0.00000000
H        1.40307756       4.05033604      22.29121606        2       1.00000000       0.00000000       0.00000000       0.00000000
H        4.20923268       4.05033604      22.29121606        2       1.00000000       0.00000000       0.00000000       0.00000000
H        0.00000000       0.00000000      24.58243212        1       1.00000000       0.00000000       0.00000000       0.00000000
H        2.80615512       0.00000000      24.58243212        1       1.00000000       0.00000000       0.00000000       0.00000000
H        1.40307756       2.43020162      24.58243212        1       1.00000000       0.00000000       0.00000000       0.00000000
H        4.20923268       2.43020162      24.58243212        1       1.00000000       0.00000000       0.00000000       0.00000000
H        5.03359932       3.23441308      29.37138484        0       1.00000000       0.75596821      -0.18287765      -1.39707021
H        2.95197114       4.32820780      35.38205586        0       1.00000000      -0.77743365      -0.08464056       0.17230993
H        2.38950589       3.92697908      43.27514880        0       1.00000000      -0.52512131      -0.70851562       2.45777808
H        1.65682296       0.83416952      42.26752201        0       1.00000000      -0.09375781       0.94018877       0.36444232
H       -0.04943072       3.80792672      38.78572240        0       1.00000000      -1.05861779      -1.69794085       0.21611747
H        3.76422884       2.43437343      38.52419661        0       1.00000000       0.49799453       2.41733067      -0.97334698
18
Lattice="5.612310241546866 0.0 0.0 0.0 4.860403243099165 0.0 0.0 0.0 44.58243212332868" Properties=species:S:1:pos:R:3:tags:I:1:masses:R:1:momenta:R:3 KEmax=23.26679191048647 iter=999 volume=1216.1236359717223 set_wall=T ns_energy=4.329829667946537 last_walked_iter_clone=849 ns_P=0.0 config_n_global=999 ns_KE=12.45601409175477 pbc="T T F"
H        1.40307756       0.81006721      20.00000000        3       1.00000000       0.00000000       0.00000000       0.00000000
H        4.20923268       0.81006721      20.00000000        3       1.00000000       0.00000000       0.00000000       0.00000000
H        0.00000000       3.24026883      20.00000000        3       1.00000000       0.00000000       0.00000000       0.00000000
H        2.80615512       3.24026883      20.00000000        3       1.00000000       0.00000000       0.00000000       0.00000000
H        0.00000000       1.62013441      22.29121606        2       1.00000000       0.00000000       0.00000000       0.00000000
H        2.80615512       1.62013441      22.29121606        2       1.00000000       0.00000000       0.00000000       0.00000000
H        1.40307756       4.05033604      22.29121606        2       1.00000000       0.00000000       0.00000000       0.00000000
H        4.20923268       4.05033604      22.29121606        2       1.00000000       0.00000000       0.00000000       0.00000000
H        0.00000000       0.00000000      24.58243212        1       1.00000000       0.00000000       0.00000000       0.00000000
H        2.80615512       0.00000000      24.58243212        1       1.00000000       0.00000000       0.00000000       0.00000000
H        1.40307756       2.43020162      24.58243212        1       1.00000000       0.00000000       0.00000000       0.00000000
H        4.20923268       2.43020162      24.58243212        1       1.00000000       0.00000000       0.00000000       0.00000000
H        2.42837668       1.06320852      41.71575903        0       1.00000000      -0.32630492       1.65576907      -0.48424074
H        1.41585847       2.74198927      31.06279978        0       1.00000000      -1.32461091       1.19152509       1.80991019
H       -0.17303806       0.26677536      28.28006762        0       1.00000000      -2.19339965       0.27243948      -1.42194327
H        5.46735422       2.86338021      40.02346642        0       1.00000000      -0.14729251      -1.12983609      -0.68114700
H        3.13712234       2.04165312      39.05619804        0       1.00000000       1.62370998       0.64854842       0.81004607
H        0.74048405       0.33872429      37.53889097        0       1.00000000       0.44814496       1.41191294      -0.89582488
18
Lattice="5.612310241546866 0.0 0.0 0.0 4.860403243099165 0.0 0.0 0.0 44.58243212332868" Properties=species:S:1:pos:R:3:tags:I:1:masses:R:1:momenta:R:3 KEmax=23.26679191048647 iter=1099 volume=1216.1236359717223 set_wall=T ns_energy=3.6442099035157582 last_walked_iter_clone=905 ns_P=0.0 config_n_global=1099 ns_KE=11.639682345924303 pbc="T T F"
H        1.40307756       0.81006721      20.00000000        3       1.00000000       0.00000000       0.00000000       0.00000000
H        4.20923268       0.81006721      20.00000000        3       1.00000000       0.00000000       0.00000000       0.00000000
H        0.00000000       3.24026883      20.00000000        3       1.00000000       0.00000000       0.00000000       0.00000000
H        2.80615512       3.24026883      20.00000000        3       1.00000000       0.00000000       0.00000000       0.00000000
H        0.00000000       1.62013441      22.29121606        2       1.00000000       0.00000000       0.00000000       0.00000000
H        2.80615512       1.62013441      22.29121606        2       1.00000000       0.00000000       0.00000000       0.00000000
H        1.40307756       4.05033604      22.29121606        2       1.00000000       0.00000000       0.00000000       0.00000000
H        4.20923268       4.05033604      22.29121606        2       1.00000000       0.00000000       0.00000000       0.00000000
H        0.00000000       0.00000000      24.58243212        1       1.00000000       0.00000000       0.00000000       0.00000000
H        2.80615512       0.00000000      24.58243212        1       1.00000000       0.00000000       0.00000000       0.00000000
H        1.40307756       2.43020162      24.58243212        1       1.00000000       0.00000000       0.00000000       0.00000000
H        4.20923268       2.43020162      24.58243212        1       1.00000000       0.00000000       0.00000000       0.00000000
H        0.67909312       3.52558746      27.98253594        0       1.00000000       0.36007336       0.65478991      -1.77513872
H        0.08973271       0.97789027      27.02191858        0       1.00000000      -0.27689911      -0.75713978       1.05944939
H        4.12048045       3.53276187      28.65661164        0       1.00000000       0.19767797       1.86214312      -1.17613105
H        0.87960490       4.81153759      38.07296336        0       1.00000000       1.28894735       0.90879365       0.37319546
H        3.49910584       2.99583135      35.00798547        0       1.00000000       0.96397630      -0.13513768      -0.79350269
H        3.10058387       3.49143571      31.88284205        0       1.00000000       1.77729247       0.51597614      -2.29756719
18