18
Lattice="5.612310241546866 0.0 0.0 0.0 4.860403243099165 0.0 0.0 0.0 44.58243212332868" Properties=species:S:1:pos:R:3:tags:I:1:masses:R:1:momenta:R:3:forces:R:3 KEmax=23.26679191048647 iter=26329 volume=1216.1236359717223 set_wall=T ns_energy=-11.56305214594866 last_walked_iter_clone=26101 energy=-11.596276852449868 stress="0.021567134465396015 0.0005270069998538579 -0.0010562544756021544 0.0005270069998538579 0.02117990734038821 -0.0014806246688380718 -0.0010562544756021544 -0.0014806246688380718 0.012570080697802823" pbc="T T F"
H        1.40307756       0.81006721      20.00000000        3       1.00000000       0.00000000       0.00000000       0.00000000       0.00000000       0.00000000       0.00000000
H        4.20923268       0.81006721      20.00000000        3       1.00000000       0.00000000       0.00000000       0.00000000       0.00000000       0.00000000       0.00000000
H        0.00000000       3.24026883      20.00000000        3       1.00000000       0.00000000       0.00000000       0.00000000       0.00000000       0.00000000       0.00000000
H        2.80615512       3.24026883      20.00000000        3       1.00000000       0.00000000       0.00000000       0.00000000       0.00000000       0.00000000       0.00000000
H        0.00000000       1.62013441      22.29121606        2       1.00000000       0.00000000       0.00000000       0.00000000       0.00000000       0.00000000       0.00000000
H        2.80615512       1.62013441      22.29121606        2       1.00000000       0.00000000       0.00000000       0.00000000       0.00000000       0.00000000       0.00000000
H        1.40307756       4.05033604      22.29121606        2       1.00000000       0.00000000       0.00000000       0.00000000       0.00000000       0.00000000       0.00000000
H        4.20923268       4.05033604      22.29121606        2       1.00000000       0.00000000       0.00000000       0.00000000       0.00000000       0.00000000       0.00000000
H        0.00000000       0.00000000      24.58243212        1       1.00000000       0.00000000       0.00000000       0.00000000       0.00000000       0.00000000       0.00000000
H        2.80615512       0.00000000      24.58243212        1       1.00000000       0.00000000       0.00000000       0.00000000       0.00000000       0.00000000       0.00000000
H        1.40307756       2.43020162      24.58243212        1       1.00000000       0.00000000       0.00000000       0.00000000       0.00000000       0.00000000       0.00000000
H        4.20923268       2.43020162      24.58243212        1       1.00000000       0.00000000       0.00000000       0.00000000       0.00000000       0.00000000       0.00000000
H        2.75815180       3.16925457      26.82549262        0       1.00000000      -0.12306306      -0.05948832       0.05591647       0.01252094      -0.27079710       0.00981260
H        1.39533861       0.74573216      26.78051995        0       1.00000000       0.00009165       0.11644712       0.06512940      -0.20214879       0.29265457      -0.15759446
H        4.04556196       2.38396191      29.13724370        0       1.00000000       0.06468418      -0.04063448       0.06940832       0.05715871      -0.03805262       0.02680266
H       -0.07587213       3.14269726      26.79966862        0       1.00000000      -0.02393412      -0.00358263       0.03962394       0.13069222       0.00564562       0.16398463
H        4.16373932       0.74548166      26.88484378        0       1.00000000       0.09596818       0.01470951      -0.04436808       0.09594110       0.02158071      -0.09660987
H        2.74364836       4.80076074      29.10971615        0       1.00000000      -0.06393759      -0.00794619      -0.04146954      -0.00938395       0.08726621      -0.04985805
18
Lattice="5.612310241546866 0.0 0.0 0.0 4.860403243099165 0.0 0.0 0.0 44.58243212332868" Properties=species:S:1:pos:R:3:tags:I:1:masses:R:1:momenta:R:3:forces:R:3 KEmax=23.26679191048647 iter=26329 volume=1216.1236359717223 set_wall=T ns_energy=-11.563989316549048 last_walked_iter_clone=26302 energy=-11.596276852449868 stress="0.021567134465396015 0.0005270069998538579 -0.0010562544756021544 0.0005270069998538579 0.02117990734038821 -0.0014806246688380718 -0.0010562544756021544 -0.0014806246688380718 0.012570080697802823" pbc="T T F"
H        1.40307756       0.81006721      20.00000000        3       1.00000000       0.00000000       0.00000000       0.00000000       0.00000000       0.00000000       0.00000000
H        4.20923268       0.81006721      20.00000000        3       1.00000000       0.00000000       0.00000000       0.00000000       0.00000000       0.00000000       0.00000000
H        0.00000000       3.24026883      20.00000000        3       1.00000000       0.00000000       0.00000000       0.00000000       0.00000000       0.00000000       0.00000000
H        2.80615512       3.24026883      20.00000000        3       1.00000000       0.00000000       0.00000000       0.00000000       0.00000000       0.00000000       0.00000000
H        0.00000000       1.62013441      22.29121606        2       1.00000000       0.00000000       0.00000000       0.00000000       0.00000000       0.00000000       0.00000000
H        2.80615512       1.62013441      22.29121606        2       1.00000000       0.00000000       0.00000000       0.00000000       0.00000000       0.00000000       0.00000000
H        1.40307756       4.05033604      22.29121606        2       1.00000000       0.00000000       0.00000000       0.00000000       0.00000000       0.00000000       0.00000000
H        4.20923268       4.05033604      22.29121606        2       1.00000000       0.00000000       0.00000000       0.00000000       0.00000000       0.00000000       0.00000000
H        0.00000000       0.00000000      24.58243212        1       1.00000000       0.00000000       0.00000000       0.00000000       0.00000000       0.00000000       0.00000000
H        2.80615512       0.00000000      24.58243212        1       1.00000000       0.00000000       0.00000000       0.00000000       0.00000000       0.00000000       0.00000000
H        1.40307756       2.43020162      24.58243212        1       1.00000000       0.00000000       0.00000000       0.00000000       0.00000000       0.00000000       0.00000000
H        4.20923268       2.43020162      24.58243212        1       1.00000000       0.00000000       0.00000000       0.00000000       0.00000000       0.00000000       0.00000000
H        2.88665931       3.21677794      26.83035002        0       1.00000000      -0.08165696      -0.01660644      -0.11496841       0.01252094      -0.27079710       0.00981260
H        1.41542421       0.87212111      26.77394639        0       1.00000000       0.09367730      -0.11625593       0.02768002      -0.20214879       0.29265457      -0.15759446
H        1.45515453       4.05445359      28.96797787        0       1.00000000       0.05014555      -0.07695946       0.03644666       0.05715871      -0.03805262       0.02680266
H        0.01830219       3.26836384      26.75896582        0       1.00000000       0.05339963      -0.15875249      -0.05052971       0.13069222       0.00564562       0.16398463
H        4.14783606       0.80905330      26.84577160        0       1.00000000      -0.07367644      -0.09371522       0.05662713       0.09594110       0.02158071      -0.09660987
H       -0.02905083       1.67518982      28.94806699        0       1.00000000      -0.07551042       0.02227281      -0.02322310      -0.00938395       0.08726621      -0.04985805
18
Lattice="5.612310241546866 0.0 0.0 0.0 4.860403243099165 0.0 0.0 0.0 44.58243212332868" Properties=species:S:1:pos:R:3:tags:I:1:masses:R:1:momenta:R:3:forces:R:3 KEmax=23.26679191048647 iter=26329 volume=1216.1236359717223 set_wall=T ns_energy=-11.56411120039787 last_walked_iter_clone=26133 energy=-11.596276852449868 stress="0.021567134465396015 0.0005270069998538579 -0.0010562544756021544 0.0005270069998538579 0.02117990734038821 -0.0014806246688380718 -0.0010562544756021544 -0.0014806246688380718 0.012570080697802823" pbc="T T F"
H        1.40307756       0.81006721      20.00000000        3       1.00000000       0.00000000       0.00000000       0.00000000       0.00000000       0.00000000       0.00000000
H        4.20923268       0.81006721      20.00000000        3       1.00000000       0.00000000       0.00000000       0.00000000       0.00000000       0.00000000       0.00000000
H        0.00000000       3.24026883      20.00000000        3       1.00000000       0.00000000       0.00000000       0.00000000       0.00000000       0.00000000       0.00000000
H        2.80615512       3.24026883      20.00000000        3       1.00000000       0.00000000       0.00000000       0.00000000       0.00000000       0.00000000       0.00000000
H        0.00000000       1.62013441      22.29121606        2       1.00000000       0.00000000       0.00000000       0.00000000       0.00000000       0.00000000       0.00000000
H        2.80615512       1.62013441      22.29121606        2       1.00000000       0.00000000       0.00000000       0.00000000       0.00000000       0.00000000       0.00000000
H        1.40307756       4.05033604      22.29121606        2       1.00000000       0.00000000       0.00000000       0.00000000       0.00000000       0.00000000       0.00000000
H        4.20923268       4.05033604      22.29121606        2       1.00000000       0.00000000       0.00000000       0.00000000       0.00000000       0.00000000       0.00000000
H        0.00000000       0.00000000      24.58243212        1       1.00000000       0.00000000       0.00000000       0.00000000       0.00000000       0.00000000       0.00000000
H        2.80615512       0.00000000      24.58243212        1       1.00000000       0.00000000       0.00000000       0.00000000       0.00000000       0.00000000       0.00000000
H        1.40307756       2.43020162      24.58243212        1       1.00000000       0.00000000       0.00000000       0.00000000       0.00000000       0.00000000       0.00000000
H        4.20923268       2.43020162      24.58243212        1       1.00000000       0.00000000       0.00000000       0.00000000       0.00000000       0.00000000       0.00000000
H        2.76572423       3.33147970      26.79654530        0       1.00000000       0.06512923      -0.08238208      -0.04333527       0.01252094      -0.27079710       0.00981260
H        1.41354625       0.88281342      26.87115463        0       1.00000000      -0.08238514       0.00086650      -0.03931057      -0.20214879       0.29265457      -0.15759446
H        4.17149772       2.44892462      29.04259561        0       1.00000000       0.05955643      -0.00676087       0.05343253       0.05715871      -0.03805262       0.02680266
H        0.04028121       3.32813419      26.78661489        0       1.00000000      -0.05494104       0.13581809      -0.00212589       0.13069222       0.00564562       0.16398463
H        4.23741878       0.84810325      26.79793218        0       1.00000000      -0.07636798       0.05007815       0.07082429       0.09594110       0.02158071      -0.09660987
H        2.84496534      -0.02967452      29.04163917        0       1.00000000      -0.16425030      -0.07319263      -0.06124771      -0.00938395       0.08726621      -0.04985805
18
Lattice="5.612310241546866 0.0 0.0 0.0 4.860403243099165 0.0 0.0 0.0 44.58243212332868" Properties=species:S:1:pos:R:3:tags:I:1:masses:R:1:momenta:R:3:forces:R:3 KEmax=23.26679191048647 iter=26329 volume=1216.1236359717223 set_wall=T ns_energy=-11.563127247271504 last_walked_iter_clone=26163 energy=-11.596276852449868 stress="0.021567134465396015 0.0005270069998538579 -0.0010562544756021544 0.0005270069998538579 0.02117990734038821 -0.0014806246688380718 -0.0010562544756021544 -0.0014806246688380718 0.012570080697802823" pbc="T T F"
H        1.40307756       0.81006721      20.00000000        3       1.00000000       0.00000000       0.00000000       0.00000000       0.00000000       0.00000000       0.00000000
H        4.20923268       0.81006721      20.00000000        3       1.00000000       0.00000000       0.00000000       0.00000000       0.00000000       0.00000000       0.00000000
H        0.00000000       3.24026883      20.00000000        3       1.00000000       0.00000000       0.00000000       0.00000000       0.00000000       0.00000000       0.00000000
H        2.80615512       3.24026883      20.00000000        3       1.00000000       0.00000000       0.00000000       0.00000000       0.00000000       0.00000000       0.00000000
H        0.00000000       1.62013441      22.29121606        2       1.00000000       0.00000000       0.00000000       0.00000000       0.00000000       0.00000000       0.00000000
H        2.80615512       1.62013441      22.29121606        2       1.00000000       0.00000000       0.00000000       0.00000000       0.00000000       0.00000000       0.00000000
H        1.40307756       4.05033604      22.29121606        2       1.00000000       0.00000000       0.00000000       0.00000000       0.00000000       0.00000000       0.00000000
H        4.20923268       4.05033604      22.29121606        2       1.00000000       0.00000000       0.00000000       0.00000000       0.00000000       0.00000000       0.00000000
H        0.00000000       0.00000000      24.58243212        1       1.00000000       0.00000000       0.00000000       0.00000000       0.00000000       0.00000000       0.00000000
H        2.80615512       0.00000000      24.58243212        1       1.00000000       0.00000000       0.00000000       0.00000000       0.00000000       0.00000000       0.00000000
H        1.40307756       2.43020162      24.58243212        1       1.00000000       0.00000000       0.00000000       0.00000000       0.00000000       0.00000000       0.00000000
H        4.20923268       2.43020162      24.58243212        1       1.00000000       0.00000000       0.00000000       0.00000000       0.00000000       0.00000000       0.00000000
H        2.84380533       3.29319846      26.91545227        0       1.00000000      -0.05755616       0.04526974       0.00886038       0.01252094      -0.27079710       0.00981260
H        1.37105609       0.88962958      26.88788928        0       1.00000000      -0.01347970       0.02051380       0.10508216      -0.20214879       0.29265457      -0.15759446
H        1.38236820       4.03188060      29.08824718        0       1.00000000       0.11042324       0.01808067       0.04425709       0.05715871      -0.03805262       0.02680266
H        5.68600892       3.28342556      26.82180130        0       1.00000000       0.00166302       0.03832867       0.06615349       0.13069222       0.00564562       0.16398463
H        4.21785739       0.80292151      26.84001643        0       1.00000000      -0.01499861       0.01357696       0.12582174       0.09594110       0.02158071      -0.09660987
H        5.47344168       1.65103774      29.12964569        0       1.00000000       0.04343369      -0.06435424      -0.07097904      -0.00938395       0.08726621      -0.04985805
18
Lattice="5.612310241546866 0.0 0.0 0.0 4.860403243099165 0.0 0.0 0.0 44.58243212332868" Properties=species:S:1:pos:R:3:tags:I:1:masses:R:1:momenta:R:3:forces:R:3 KEmax=23.26679191048647 iter=26329 volume=1216.1236359717223 set_wall=T ns_energy=-11.561697647323385 last_walked_iter_clone=26124 energy=-11.596276852449868 stress="0.021567134465396015 0.0005270069998538579 -0.0010562544756021544 0.0005270069998538579 0.02117990734038821 -0.0014806246688380718 -0.0010562544756021544 -0.0014806246688380718 0.012570080697802823" pbc="T T F"
H        1.40307756       0.81006721      20.00000000        3       1.00000000       0.00000000       0.00000000       0.00000000       0.00000000       0.00000000       0.00000000
H        4.20923268       0.81006721      20.00000000        3       1.00000000       0.00000000       0.00000000       0.00000000       0.00000000       0.00000000       0.00000000
H        0.00000000       3.24026883      20.00000000        3       1.00000000       0.00000000       0.00000000       0.00000000       0.00000000       0.00000000       0.00000000
H        2.80615512       3.24026883      20.00000000        3       1.00000000       0.00000000       0.00000000       0.00000000       0.00000000       0.00000000       0.00000000
H        0.00000000       1.62013441      22.29121606        2       1.00000000       0.00000000       0.00000000       0.00000000       0.00000000       0.00000000       0.00000000
H        2.80615512       1.62013441      22.29121606        2       1.00000000       0.00000000       0.00000000       0.00000000       0.00000000       0.00000000       0.00000000
H        1.40307756       4.05033604      22.29121606        2       1.00000000       0.00000000       0.00000000       0.00000000       0.00000000       0.00000000       0.00000000
H        4.20923268       4.05033604      22.29121606        2       1.00000000       0.00000000       0.00000000       0.00000000       0.00000000       0.00000000       0.00000000
H        0.00000000       0.00000000      24.58243212        1       1.00000000       0.00000000       0.00000000       0.00000000       0.00000000       0.00000000       0.00000000
H        2.80615512       0.00000000      24.58243212        1       1.00000000       0.00000000       0.00000000       0.00000000       0.00000000       0.00000000       0.00000000
H        1.40307756       2.43020162      24.58243212        1       1.00000000       0.00000000       0.00000000       0.00000000       0.00000000       0.00000000       0.00000000
H        4.20923268       2.43020162      24.58243212        1       1.00000000       0.00000000       0.00000000       0.00000000       0.00000000       0.00000000       0.00000000
H        2.76792993       3.26884254      26.79265109        0       1.00000000      -0.00871194       0.04218253      -0.05491594       0.01252094      -0.27079710       0.00981260
H        1.38532724       0.80649921      26.74236420        0       1.00000000       0.05446289      -0.00431933      -0.05776849      -0.20214879       0.29265457      -0.15759446
H        4.28820178       2.50146691      29.00292975        0       1.00000000       0.02971681      -0.04500350      -0.06507155       0.05715871      -0.03805262       0.02680266
H       -0.04160185       3.27296845      26.80524889        0       1.00000000       0.09633735       0.08210018       0.02227969       0.13069222       0.00564562       0.16398463
H        4.22620046       0.88576704      26.76276631        0       1.00000000       0.00254049      -0.05469043       0.18236406       0.09594110       0.02158071      -0.09660987
H        2.76693346       0.18051281      29.06052667        0       1.00000000       0.05952232      -0.05352535       0.01624660      -0.00938395       0.08726621      -0.04985805
18
Lattice="5.612310241546866 0.0 0.0 0.0 4.860403243099165 0.0 0.0 0.0 44.58243212332868" Properties=species:S:1:pos:R:3:tags:I:1:masses:R:1:momenta:R:3:forces:R:3 KEmax=23.26679191048647 iter=26329 volume=1216.1236359717223 set_wall=T ns_energy=-11.562406286416735 last_walked_iter_clone=26218 energy=-11.596276852449868 stress="0.021567134465396015 0.0005270069998538579 -0.0010562544756021544 0.0005270069998538579 0.02117990734038821 -0.0014806246688380718 -0.0010562544756021544 -0.0014806246688380718 0.012570080697802823" pbc="T T F"
H        1.40307756       0.81006721      20.00000000        3       1.00000000       0.00000000       0.00000000       0.00000000       0.00000000       0.00000000       0.00000000
H        4.20923268       0.81006721      20.00000000        3       1.00000000       0.00000000       0.00000000       0.00000000       0.00000000       0.00000000       0.00000000
H        0.00000000       3.24026883      20.00000000        3       1.00000000       0.00000000       0.00000000       0.00000000       0.00000000       0.00000000       0.00000000
H        2.80615512       3.24026883      20.00000000        3       1.00000000       0.00000000       0.00000000       0.00000000       0.00000000       0.00000000       0.00000000
H        0.00000000       1.62013441      22.29121606        2       1.00000000       0.00000000       0.00000000       0.00000000       0.00000000       0.00000000       0.00000000
H        2.80615512       1.62013441      22.29121606        2       1.00000000       0.00000000       0.00000000       0.00000000       0.00000000       0.00000000       0.00000000
H        1.40307756       4.05033604      22.29121606        2       1.00000000       0.00000000       0.00000000       0.00000000       0.00000000       0.00000000       0.00000000
H        4.20923268       4.05033604      22.29121606        2       1.00000000       0.00000000       0.00000000       0.00000000       0.00000000       0.00000000       0.00000000
H        0.00000000       0.00000000      24.58243212        1       1.00000000       0.00000000       0.00000000       0.00000000       0.00000000       0.00000000       0.00000000
H        2.80615512       0.00000000      24.58243212        1       1.00000000       0.00000000       0.00000000       0.00000000       0.00000000       0.00000000       0.00000000
H        1.40307756       2.43020162      24.58243212        1       1.00000000       0.00000000       0.00000000       0.00000000       0.00000000       0.00000000       0.00000000
H        4.20923268       2.43020162      24.58243212        1       1.00000000       0.00000000       0.00000000       0.00000000       0.00000000       0.00000000       0.00000000
H        2.89297338       3.22091105      26.77962032        0       1.00000000      -0.03896903       0.02905633       0.00524481       0.01252094      -0.27079710       0.00981260
H        1.45311546       0.74719474      26.84851633        0       1.00000000      -0.05970686       0.07603025      -0.00638310      -0.20214879       0.29265457      -0.15759446
H        4.26454633       2.45720022      29.03135588        0       1.00000000       0.07949521      -0.13756270      -0.00126450       0.05715871      -0.03805262       0.02680266
H        0.11975858       3.18715002      26.77008767        0       1.00000000       0.09926361       0.14592400       0.01856644       0.13069222       0.00564562       0.16398463
H        4.28259965       0.76493998      26.85797027        0       1.00000000       0.04496506       0.06930950      -0.08503519       0.09594110       0.02158071      -0.09660987
H        1.46536245       2.29846300      29.04567263        0       1.00000000      -0.05642922       0.12350530      -0.06392903      -0.00938395       0.08726621      -0.04985805
18
Lattice="5.612310241546866 0.0 0.0 0.0 4.860403243099165 0.0 0.0 0.0 44.58243212332868" Properties=species:S:1:pos:R:3:tags:I:1:masses:R:1:momenta:R:3:forces:R:3 KEmax=23.26679191048647 iter=26329 volume=1216.1236359717223 set_wall=T ns_energy=-11.5620337937878 last_walked_iter_clone=26232 energy=-11.596276852449868 stress="0.021567134465396015 0.0005270069998538579 -0.0010562544756021544 0.0005270069998538579 0.02117990734038821 -0.0014806246688380718 -0.0010562544756021544 -0.0014806246688380718 0.012570080697802823" pbc="T T F"
H        1.40307756       0.81006721      20.00000000        3       1.00000000       0.00000000       0.00000000       0.00000000       0.00000000       0.00000000       0.00000000
H        4.20923268       0.81006721      20.00000000        3       1.00000000       0.00000000       0.00000000       0.00000000       0.00000000       0.00000000       0.00000000
H        0.00000000       3.24026883      20.00000000        3       1.00000000       0.00000000       0.00000000       0.00000000       0.00000000       0.00000000       0.00000000
H        2.80615512       3.24026883      20.00000000        3       1.00000000       0.00000000       0.00000000       0.00000000       0.00000000       0.00000000       0.00000000
H        0.00000000       1.62013441      22.29121606        2       1.00000000       0.00000000       0.00000000       0.00000000       0.00000000       0.00000000       0.00000000
H        2.80615512       1.62013441      22.29121606        2       1.00000000       0.00000000       0.00000000       0.00000000       0.00000000       0.00000000       0.00000000
H        1.40307756       4.05033604      22.29121606        2       1.00000000       0.00000000       0.00000000       0.00000000       0.00000000       0.00000000       0.00000000
H        4.20923268       4.05033604      22.29121606        2       1.00000000       0.00000000       0.00000000       0.00000000       0.00000000       0.00000000       0.00000000
H        0.00000000       0.00000000      24.58243212        1       1.00000000       0.00000000       0.00000000       0.00000000       0.00000000       0.00000000       0.00000000
H        2.80615512       0.00000000      24.58243212        1       1.00000000       0.00000000       0.00000000       0.00000000       0.00000000       0.00000000       0.00000000
H        1.40307756       2.43020162      24.58243212        1       1.00000000       0.00000000       0.00000000       0.00000000       0.00000000       0.00000000       0.00000000
H        4.20923268       2.43020162      24.58243212        1       1.00000000       0.00000000       0.00000000       0.00000000       0.00000000       0.00000000       0.00000000
H        2.87164274       3.29305963      26.90592326        0       1.00000000       0.12765524       0.09912785       0.03036569       0.01252094      -0.27079710       0.00981260
H        1.44538763       0.87705624      26.80912227        0       1.00000000       0.00344235      -0.05016206       0.01852408      -0.20214879       0.29265457      -0.15759446
H        1.33263952       4.16968924      29.07108108        0       1.00000000       0.15722242      -0.02845997       0.09059728       0.05715871      -0.03805262       0.02680266
H        5.66238786       3.28859170      26.75867523        0       1.00000000       0.06770316      -0.01641312       0.03905226       0.13069222       0.00564562       0.16398463
H        4.27418620       0.82199785      26.88947178        0       1.00000000      -0.08866964       0.04944913      -0.04719715       0.09594110       0.02158071      -0.09660987
H        5.57604136       1.78839753      28.99853468        0       1.00000000      -0.01842080       0.10813035       0.01328881      -0.00938395       0.08726621      -0.04985805
18
Lattice="5.612310241546866 0.0 0.0 0.0 4.860403243099165 0.0 0.0 0.0 44.58243212332868" Properties=species:S:1:pos:R:3:tags:I:1:masses:R:1:momenta:R:3:forces:R:3 KEmax=23.26679191048647 iter=26329 volume=1216.1236359717223 set_wall=T ns_energy=-11.562559801387916 last_walked_iter_clone=26155 energy=-11.596276852449868 stress="0.021567134465396015 0.0005270069998538579 -0.0010562544756021544 0.0005270069998538579 0.02117990734038821 -0.0014806246688380718 -0.0010562544756021544 -0.0014806246688380718 0.012570080697802823" pbc="T T F"
H        1.40307756       0.81006721      20.00000000        3       1.00000000       0.00000000       0.00000000       0.00000000       0.00000000       0.00000000       0.00000000
H        4.20923268       0.81006721      20.00000000        3       1.00000000       0.00000000       0.00000000       0.00000000       0.00000000       0.00000000       0.00000000
H        0.00000000       3.24026883      20.00000000        3       1.00000000       0.00000000       0.00000000       0.00000000       0.00000000       0.00000000       0.00000000
H        2.80615512       3.24026883      20.00000000        3       1.00000000       0.00000000       0.00000000       0.00000000       0.00000000       0.00000000       0.00000000
H        0.00000000       1.62013441      22.29121606        2       1.00000000       0.00000000       0.00000000       0.00000000       0.00000000       0.00000000       0.00000000
H        2.80615512       1.62013441      22.29121606        2       1.00000000       0.00000000       0.00000000       0.00000000       0.00000000       0.00000000       0.00000000
H        1.40307756       4.05033604      22.29121606        2       1.00000000       0.00000000       0.00000000       0.00000000       0.00000000       0.00000000       0.00000000
H        4.20923268       4.05033604      22.29121606        2       1.00000000       0.00000000       0.00000000       0.00000000       0.00000000       0.00000000       0.00000000
H        0.00000000       0.00000000      24.58243212        1       1.00000000       0.00000000       0.00000000       0.00000000       0.00000000       0.00000000       0.00000000
H        2.80615512       0.00000000      24.58243212        1       1.00000000       0.00000000       0.00000000       0.00000000       0.00000000       0.00000000       0.00000000
H        1.40307756       2.43020162      24.58243212        1       1.00000000       0.00000000       0.00000000       0.00000000       0.00000000       0.00000000       0.00000000
H        4.20923268       2.43020162      24.58243212        1       1.00000000       0.00000000       0.00000000       0.00000000       0.00000000       0.00000000       0.00000000
H        2.77184776       3.20755531      26.76087714        0       1.00000000       0.05027318      -0.08116825       0.01120785       0.01252094      -0.27079710       0.00981260
H        1.38406126       0.81917848      26.86817918        0       1.00000000      -0.00132757       0.04996229      -0.13878474      -0.20214879       0.29265457      -0.15759446
H        4.22515881       2.53083536      28.92706150        0       1.00000000       0.07246818      -0.02984458      -0.02646250       0.05715871      -0.03805262       0.02680266