18
Lattice="5.612310241546866 0.0 0.0 0.0 4.860403243099165 0.0 0.0 0.0 44.58243212332868" Properties=species:S:1:pos:R:3:tags:I:1:masses:R:1:momenta:R:3:forces:R:3 KEmax=23.26679191048647 iter=50063 volume=1216.1236359717223 set_wall=T ns_energy=-11.645442838329382 last_walked_iter_clone=49904 energy=-11.645539683689666 stress="0.022443061701265168 -5.1051299154163704e-05 -7.371908709556193e-05 -5.1051299154163704e-05 0.022418975443914826 -2.0345291434708115e-05 -7.371908709556193e-05 -2.0345291434708115e-05 0.01136949194026319" pbc="T T F"
H        1.40307756       0.81006721      20.00000000        3       1.00000000       0.00000000       0.00000000       0.00000000       0.00000000       0.00000000       0.00000000
H        4.20923268       0.81006721      20.00000000        3       1.00000000       0.00000000       0.00000000       0.00000000       0.00000000       0.00000000       0.00000000
H        0.00000000       3.24026883      20.00000000        3       1.00000000       0.00000000       0.00000000       0.00000000       0.00000000       0.00000000       0.00000000
H        2.80615512       3.24026883      20.00000000        3       1.00000000       0.00000000       0.00000000       0.00000000       0.00000000       0.00000000       0.00000000
H        0.00000000       1.62013441      22.29121606        2       1.00000000       0.00000000       0.00000000       0.00000000       0.00000000       0.00000000       0.00000000
H        2.80615512       1.62013441      22.29121606        2       1.00000000       0.00000000       0.00000000       0.00000000       0.00000000       0.00000000       0.00000000
H        1.40307756       4.05033604      22.29121606        2       1.00000000       0.00000000       0.00000000       0.00000000       0.00000000       0.00000000       0.00000000
H        4.20923268       4.05033604      22.29121606        2       1.00000000       0.00000000       0.00000000       0.00000000       0.00000000       0.00000000       0.00000000
H        0.00000000       0.00000000      24.58243212        1       1.00000000       0.00000000       0.00000000       0.00000000       0.00000000       0.00000000       0.00000000
H        2.80615512       0.00000000      24.58243212        1       1.00000000       0.00000000       0.00000000       0.00000000       0.00000000       0.00000000       0.00000000
H        1.40307756       2.43020162      24.58243212        1       1.00000000       0.00000000       0.00000000       0.00000000       0.00000000       0.00000000       0.00000000
H        4.20923268       2.43020162      24.58243212        1       1.00000000       0.00000000       0.00000000       0.00000000       0.00000000       0.00000000       0.00000000
H        2.79926981       3.23019626      26.79078471        0       1.00000000       0.00037058       0.00252561      -0.00061970      -0.00686069      -0.00998754      -0.00767591
H        1.39334090       0.82556499      26.81225045        0       1.00000000       0.00642921      -0.00074757      -0.00483537      -0.01265474       0.01019557      -0.00418960
H        4.21767192       2.41763518      29.01508940        0       1.00000000      -0.00154124       0.00015885       0.00255542      -0.00797688       0.00796986       0.02151187
H        0.01368961       3.25477710      26.80934451        0       1.00000000      -0.00385602      -0.01110447       0.00470974       0.01489402       0.00973788      -0.00584842
H        4.21387603       0.79641268      26.78995127        0       1.00000000      -0.00070137       0.01076521       0.00691497       0.01067878      -0.01694848      -0.01466346
H        2.79728995       4.84928560      29.01773498        0       1.00000000       0.00613203       0.00700046      -0.00062314       0.00902866      -0.00344188       0.00558682
18
Lattice="5.612310241546866 0.0 0.0 0.0 4.860403243099165 0.0 0.0 0.0 44.58243212332868" Properties=species:S:1:pos:R:3:tags:I:1:masses:R:1:momenta:R:3:forces:R:3 KEmax=23.26679191048647 iter=50063 volume=1216.1236359717223 set_wall=T ns_energy=-11.645446115402738 last_walked_iter_clone=49949 energy=-11.645539683689666 stress="0.022443061701265168 -5.1051299154163704e-05 -7.371908709556193e-05 -5.1051299154163704e-05 0.022418975443914826 -2.0345291434708115e-05 -7.371908709556193e-05 -2.0345291434708115e-05 0.01136949194026319" pbc="T T F"
H        1.40307756       0.81006721      20.00000000        3       1.00000000       0.00000000       0.00000000       0.00000000       0.00000000       0.00000000       0.00000000
H        4.20923268       0.81006721      20.00000000        3       1.00000000       0.00000000       0.00000000       0.00000000       0.00000000       0.00000000       0.00000000
H        0.00000000       3.24026883      20.00000000        3       1.00000000       0.00000000       0.00000000       0.00000000       0.00000000       0.00000000       0.00000000
H        2.80615512       3.24026883      20.00000000        3       1.00000000       0.00000000       0.00000000       0.00000000       0.00000000       0.00000000       0.00000000
H        0.00000000       1.62013441      22.29121606        2       1.00000000       0.00000000       0.00000000       0.00000000       0.00000000       0.00000000       0.00000000
H        2.80615512       1.62013441      22.29121606        2       1.00000000       0.00000000       0.00000000       0.00000000       0.00000000       0.00000000       0.00000000
H        1.40307756       4.05033604      22.29121606        2       1.00000000       0.00000000       0.00000000       0.00000000       0.00000000       0.00000000       0.00000000
H        4.20923268       4.05033604      22.29121606        2       1.00000000       0.00000000       0.00000000       0.00000000       0.00000000       0.00000000       0.00000000
H        0.00000000       0.00000000      24.58243212        1       1.00000000       0.00000000       0.00000000       0.00000000       0.00000000       0.00000000       0.00000000
H        2.80615512       0.00000000      24.58243212        1       1.00000000       0.00000000       0.00000000       0.00000000       0.00000000       0.00000000       0.00000000
H        1.40307756       2.43020162      24.58243212        1       1.00000000       0.00000000       0.00000000       0.00000000       0.00000000       0.00000000       0.00000000
H        4.20923268       2.43020162      24.58243212        1       1.00000000       0.00000000       0.00000000       0.00000000       0.00000000       0.00000000       0.00000000
H        2.80195651       3.22683466      26.78664901        0       1.00000000      -0.00568354      -0.00329628      -0.00297038      -0.00686069      -0.00998754      -0.00767591
H        1.38933734       0.82343171      26.81068930        0       1.00000000       0.00605448       0.00399431       0.00411908      -0.01265474       0.01019557      -0.00418960
H        4.21327330       2.41057797      29.01366372        0       1.00000000       0.00372450      -0.00189993      -0.00245308      -0.00797688       0.00796986       0.02151187
H        0.00793101       3.25353682      26.81614793        0       1.00000000       0.00390716      -0.00237926      -0.00181691       0.01489402       0.00973788      -0.00584842
H        4.21005704       0.79852324      26.78798986        0       1.00000000      -0.00342736       0.00425937      -0.00381596       0.01067878      -0.01694848      -0.01466346
H        2.79986756       4.84769746      29.00936458        0       1.00000000      -0.00625661      -0.00988283      -0.00590740       0.00902866      -0.00344188       0.00558682
18
Lattice="5.612310241546866 0.0 0.0 0.0 4.860403243099165 0.0 0.0 0.0 44.58243212332868" Properties=species:S:1:pos:R:3:tags:I:1:masses:R:1:momenta:R:3:forces:R:3 KEmax=23.26679191048647 iter=50063 volume=1216.1236359717223 set_wall=T ns_energy=-11.645456663435336 last_walked_iter_clone=50002 energy=-11.645539683689666 stress="0.022443061701265168 -5.1051299154163704e-05 -7.371908709556193e-05 -5.1051299154163704e-05 0.022418975443914826 -2.0345291434708115e-05 -7.371908709556193e-05 -2.0345291434708115e-05 0.01136949194026319" pbc="T T F"
H        1.40307756       0.81006721      20.00000000        3       1.00000000       0.00000000       0.00000000       0.00000000       0.00000000       0.00000000       0.00000000
H        4.20923268       0.81006721      20.00000000        3       1.00000000       0.00000000       0.00000000       0.00000000       0.00000000       0.00000000       0.00000000
H        0.00000000       3.24026883      20.00000000        3       1.00000000       0.00000000       0.00000000       0.00000000       0.00000000       0.00000000       0.00000000
H        2.80615512       3.24026883      20.00000000        3       1.00000000       0.00000000       0.00000000       0.00000000       0.00000000       0.00000000       0.00000000
H        0.00000000       1.62013441      22.29121606        2       1.00000000       0.00000000       0.00000000       0.00000000       0.00000000       0.00000000       0.00000000
H        2.80615512       1.62013441      22.29121606        2       1.00000000       0.00000000       0.00000000       0.00000000       0.00000000       0.00000000       0.00000000
H        1.40307756       4.05033604      22.29121606        2       1.00000000       0.00000000       0.00000000       0.00000000       0.00000000       0.00000000       0.00000000
H        4.20923268       4.05033604      22.29121606        2       1.00000000       0.00000000       0.00000000       0.00000000       0.00000000       0.00000000       0.00000000
H        0.00000000       0.00000000      24.58243212        1       1.00000000       0.00000000       0.00000000       0.00000000       0.00000000       0.00000000       0.00000000
H        2.80615512       0.00000000      24.58243212        1       1.00000000       0.00000000       0.00000000       0.00000000       0.00000000       0.00000000       0.00000000
H        1.40307756       2.43020162      24.58243212        1       1.00000000       0.00000000       0.00000000       0.00000000       0.00000000       0.00000000       0.00000000
H        4.20923268       2.43020162      24.58243212        1       1.00000000       0.00000000       0.00000000       0.00000000       0.00000000       0.00000000       0.00000000
H        2.80199418       3.22673941      26.78760249        0       1.00000000       0.00021951       0.00700150       0.00673722      -0.00686069      -0.00998754      -0.00767591
H        1.40045316       0.82377362      26.81399684        0       1.00000000       0.00333902       0.00618111      -0.00412924      -0.01265474       0.01019557      -0.00418960
H        4.21924135       2.40776595      29.01447348        0       1.00000000      -0.00017213       0.00148793      -0.00312747      -0.00797688       0.00796986       0.02151187
H        0.00700316       3.25652707      26.81440796        0       1.00000000       0.00025070      -0.00334733      -0.00582222       0.01489402       0.00973788      -0.00584842
H        4.21651128       0.79746862      26.78525155        0       1.00000000       0.00327823       0.00067055       0.00092823       0.01067878      -0.01694848      -0.01466346
H        2.80378845       4.83599745      29.01227420        0       1.00000000      -0.00803270      -0.00107724      -0.00410333       0.00902866      -0.00344188       0.00558682
18
Lattice="5.612310241546866 0.0 0.0 0.0 4.860403243099165 0.0 0.0 0.0 44.58243212332868" Properties=species:S:1:pos:R:3:tags:I:1:masses:R:1:momenta:R:3:forces:R:3 KEmax=23.26679191048647 iter=50063 volume=1216.1236359717223 set_wall=T ns_energy=-11.645468760576966 last_walked_iter_clone=50025 energy=-11.645539683689666 stress="0.022443061701265168 -5.1051299154163704e-05 -7.371908709556193e-05 -5.1051299154163704e-05 0.022418975443914826 -2.0345291434708115e-05 -7.371908709556193e-05 -2.0345291434708115e-05 0.01136949194026319" pbc="T T F"
H        1.40307756       0.81006721      20.00000000        3       1.00000000       0.00000000       0.00000000       0.00000000       0.00000000       0.00000000       0.00000000
H        4.20923268       0.81006721      20.00000000        3       1.00000000       0.00000000       0.00000000       0.00000000       0.00000000       0.00000000       0.00000000
H        0.00000000       3.24026883      20.00000000        3       1.00000000       0.00000000       0.00000000       0.00000000       0.00000000       0.00000000       0.00000000
H        2.80615512       3.24026883      20.00000000        3       1.00000000       0.00000000       0.00000000       0.00000000       0.00000000       0.00000000       0.00000000
H        0.00000000       1.62013441      22.29121606        2       1.00000000       0.00000000       0.00000000       0.00000000       0.00000000       0.00000000       0.00000000
H        2.80615512       1.62013441      22.29121606        2       1.00000000       0.00000000       0.00000000       0.00000000       0.00000000       0.00000000       0.00000000
H        1.40307756       4.05033604      22.29121606        2       1.00000000       0.00000000       0.00000000       0.00000000       0.00000000       0.00000000       0.00000000
H        4.20923268       4.05033604      22.29121606        2       1.00000000       0.00000000       0.00000000       0.00000000       0.00000000       0.00000000       0.00000000
H        0.00000000       0.00000000      24.58243212        1       1.00000000       0.00000000       0.00000000       0.00000000       0.00000000       0.00000000       0.00000000
H        2.80615512       0.00000000      24.58243212        1       1.00000000       0.00000000       0.00000000       0.00000000       0.00000000       0.00000000       0.00000000
H        1.40307756       2.43020162      24.58243212        1       1.00000000       0.00000000       0.00000000       0.00000000       0.00000000       0.00000000       0.00000000
H        4.20923268       2.43020162      24.58243212        1       1.00000000       0.00000000       0.00000000       0.00000000       0.00000000       0.00000000       0.00000000
H        2.80294391       3.22479222      26.78712442        0       1.00000000      -0.00492505       0.00144579       0.00521382      -0.00686069      -0.00998754      -0.00767591
H        1.39003396       0.82453531      26.81324814        0       1.00000000       0.00100189       0.00066721       0.00586974      -0.01265474       0.01019557      -0.00418960
H        4.20306179       2.39722820      29.01575952        0       1.00000000      -0.00277364      -0.00392041      -0.00998310      -0.00797688       0.00796986       0.02151187
H        0.00778344       3.25529917      26.81714757        0       1.00000000       0.00283066       0.00114060      -0.00096220       0.01489402       0.00973788      -0.00584842
H        4.20831361       0.79693405      26.78870102        0       1.00000000       0.00272985       0.00610502      -0.00012838       0.01067878      -0.01694848      -0.01466346
H        2.79530323       4.83380873      29.01692311        0       1.00000000       0.00156049       0.00607908       0.00281621       0.00902866      -0.00344188       0.00558682
18
Lattice="5.612310241546866 0.0 0.0 0.0 4.860403243099165 0.0 0.0 0.0 44.58243212332868" Properties=species:S:1:pos:R:3:tags:I:1:masses:R:1:momenta:R:3:forces:R:3 KEmax=23.26679191048647 iter=50063 volume=1216.1236359717223 set_wall=T ns_energy=-11.645441874711643 last_walked_iter_clone=50028 energy=-11.645539683689666 stress="0.022443061701265168 -5.1051299154163704e-05 -7.371908709556193e-05 -5.1051299154163704e-05 0.022418975443914826 -2.0345291434708115e-05 -7.371908709556193e-05 -2.0345291434708115e-05 0.01136949194026319" pbc="T T F"
H        1.40307756       0.81006721      20.00000000        3       1.00000000       0.00000000       0.00000000       0.00000000       0.00000000       0.00000000       0.00000000
H        4.20923268       0.81006721      20.00000000        3       1.00000000       0.00000000       0.00000000       0.00000000       0.00000000       0.00000000       0.00000000
H        0.00000000       3.24026883      20.00000000        3       1.00000000       0.00000000       0.00000000       0.00000000       0.00000000       0.00000000       0.00000000
H        2.80615512       3.24026883      20.00000000        3       1.00000000       0.00000000       0.00000000       0.00000000       0.00000000       0.00000000       0.00000000
H        0.00000000       1.62013441      22.29121606        2       1.00000000       0.00000000       0.00000000       0.00000000       0.00000000       0.00000000       0.00000000
H        2.80615512       1.62013441      22.29121606        2       1.00000000       0.00000000       0.00000000       0.00000000       0.00000000       0.00000000       0.00000000
H        1.40307756       4.05033604      22.29121606        2       1.00000000       0.00000000       0.00000000       0.00000000       0.00000000       0.00000000       0.00000000
H        4.20923268       4.05033604      22.29121606        2       1.00000000       0.00000000       0.00000000       0.00000000       0.00000000       0.00000000       0.00000000
H        0.00000000       0.00000000      24.58243212        1       1.00000000       0.00000000       0.00000000       0.00000000       0.00000000       0.00000000       0.00000000
H        2.80615512       0.00000000      24.58243212        1       1.00000000       0.00000000       0.00000000       0.00000000       0.00000000       0.00000000       0.00000000
H        1.40307756       2.43020162      24.58243212        1       1.00000000       0.00000000       0.00000000       0.00000000       0.00000000       0.00000000       0.00000000
H        4.20923268       2.43020162      24.58243212        1       1.00000000       0.00000000       0.00000000       0.00000000       0.00000000       0.00000000       0.00000000
H        2.80973933       3.22411751      26.79165051        0       1.00000000       0.00117746       0.00023761      -0.00269555      -0.00686069      -0.00998754      -0.00767591
H        1.39402907       0.82002071      26.81370051        0       1.00000000       0.00683364      -0.00013434      -0.00429072      -0.01265474       0.01019557      -0.00418960
H        4.22916797       2.41437729      29.01894012        0       1.00000000       0.00340207      -0.00303806      -0.00179086      -0.00797688       0.00796986       0.02151187
H        0.01648712       3.25398878      26.81303583        0       1.00000000       0.00237305       0.00271769      -0.00089016       0.01489402       0.00973788      -0.00584842
H        4.21895277       0.79951100      26.78584619        0       1.00000000      -0.00804755      -0.00215162      -0.00249305       0.01067878      -0.01694848      -0.01466346
H        2.80322392       4.84645959      29.01153224        0       1.00000000      -0.00847671      -0.00176061      -0.00238208       0.00902866      -0.00344188       0.00558682
18
Lattice="5.612310241546866 0.0 0.0 0.0 4.860403243099165 0.0 0.0 0.0 44.58243212332868" Properties=species:S:1:pos:R:3:tags:I:1:masses:R:1:momenta:R:3:forces:R:3 KEmax=23.26679191048647 iter=50063 volume=1216.1236359717223 set_wall=T ns_energy=-11.645441828658907 last_walked_iter_clone=49952 energy=-11.645539683689666 stress="0.022443061701265168 -5.1051299154163704e-05 -7.371908709556193e-05 -5.1051299154163704e-05 0.022418975443914826 -2.0345291434708115e-05 -7.371908709556193e-05 -2.0345291434708115e-05 0.01136949194026319" pbc="T T F"
H        1.40307756       0.81006721      20.00000000        3       1.00000000       0.00000000       0.00000000       0.00000000       0.00000000       0.00000000       0.00000000
H        4.20923268       0.81006721      20.00000000        3       1.00000000       0.00000000       0.00000000       0.00000000       0.00000000       0.00000000       0.00000000
H        0.00000000       3.24026883      20.00000000        3       1.00000000       0.00000000       0.00000000       0.00000000       0.00000000       0.00000000       0.00000000
H        2.80615512       3.24026883      20.00000000        3       1.00000000       0.00000000       0.00000000       0.00000000       0.00000000       0.00000000       0.00000000
H        0.00000000       1.62013441      22.29121606        2       1.00000000       0.00000000       0.00000000       0.00000000       0.00000000       0.00000000       0.00000000
H        2.80615512       1.62013441      22.29121606        2       1.00000000       0.00000000       0.00000000       0.00000000       0.00000000       0.00000000       0.00000000
H        1.40307756       4.05033604      22.29121606        2       1.00000000       0.00000000       0.00000000       0.00000000       0.00000000       0.00000000       0.00000000
H        4.20923268       4.05033604      22.29121606        2       1.00000000       0.00000000       0.00000000       0.00000000       0.00000000       0.00000000       0.00000000
H        0.00000000       0.00000000      24.58243212        1       1.00000000       0.00000000       0.00000000       0.00000000       0.00000000       0.00000000       0.00000000
H        2.80615512       0.00000000      24.58243212        1       1.00000000       0.00000000       0.00000000       0.00000000       0.00000000       0.00000000       0.00000000
H        1.40307756       2.43020162      24.58243212        1       1.00000000       0.00000000       0.00000000       0.00000000       0.00000000       0.00000000       0.00000000
H        4.20923268       2.43020162      24.58243212        1       1.00000000       0.00000000       0.00000000       0.00000000       0.00000000       0.00000000       0.00000000
H        2.79574858       3.22806366      26.79150570        0       1.00000000      -0.00060592      -0.00912574      -0.00156136      -0.00686069      -0.00998754      -0.00767591
H        1.39163165       0.82195104      26.81353482        0       1.00000000      -0.00303719       0.00088146      -0.00685332      -0.01265474       0.01019557      -0.00418960
H        4.21168285       2.41545537      29.01052480        0       1.00000000      -0.00309983      -0.00106533      -0.00696038      -0.00797688       0.00796986       0.02151187
H        0.00767769       3.25189091      26.81044808        0       1.00000000       0.00332409      -0.00117678      -0.00139130       0.01489402       0.00973788      -0.00584842
H        4.21516316       0.79029680      26.78699175        0       1.00000000      -0.00455290       0.00597264      -0.00296714       0.01067878      -0.01694848      -0.01466346
H        2.79797888       4.84545382      29.01759253        0       1.00000000      -0.00091491       0.00154035      -0.00064093       0.00902866      -0.00344188       0.00558682
18
Lattice="5.612310241546866 0.0 0.0 0.0 4.860403243099165 0.0 0.0 0.0 44.58243212332868" Properties=species:S:1:pos:R:3:tags:I:1:masses:R:1:momenta:R:3:forces:R:3 KEmax=23.26679191048647 iter=50063 volume=1216.1236359717223 set_wall=T ns_energy=-11.645441856840042 last_walked_iter_clone=49955 energy=-11.645539683689666 stress="0.022443061701265168 -5.1051299154163704e-05 -7.371908709556193e-05 -5.1051299154163704e-05 0.022418975443914826 -2.0345291434708115e-05 -7.371908709556193e-05 -2.0345291434708115e-05 0.01136949194026319" pbc="T T F"
H        1.40307756       0.81006721      20.00000000        3       1.00000000       0.00000000       0.00000000       0.00000000       0.00000000       0.00000000       0.00000000
H        4.20923268       0.81006721      20.00000000        3       1.00000000       0.00000000       0.00000000       0.00000000       0.00000000       0.00000000       0.00000000
H        0.00000000       3.24026883      20.00000000        3       1.00000000       0.00000000       0.00000000       0.00000000       0.00000000       0.00000000       0.00000000
H        2.80615512       3.24026883      20.00000000        3       1.00000000       0.00000000       0.00000000       0.00000000       0.00000000       0.00000000       0.00000000
H        0.00000000       1.62013441      22.29121606        2       1.00000000       0.00000000       0.00000000       0.00000000       0.00000000       0.00000000       0.00000000
H        2.80615512       1.62013441      22.29121606        2       1.00000000       0.00000000       0.00000000       0.00000000       0.00000000       0.00000000       0.00000000
H        1.40307756       4.05033604      22.29121606        2       1.00000000       0.00000000       0.00000000       0.00000000       0.00000000       0.00000000       0.00000000
H        4.20923268       4.05033604      22.29121606        2       1.00000000       0.00000000       0.00000000       0.00000000       0.00000000       0.00000000       0.00000000
H        0.00000000       0.00000000      24.58243212        1       1.00000000       0.00000000       0.00000000       0.00000000       0.00000000       0.00000000       0.00000000
H        2.80615512       0.00000000      24.58243212        1       1.00000000       0.00000000       0.00000000       0.00000000       0.00000000       0.00000000       0.00000000
H        1.40307756       2.43020162      24.58243212        1       1.00000000       0.00000000       0.00000000       0.00000000       0.00000000       0.00000000       0.00000000
H        4.20923268       2.43020162      24.58243212        1       1.00000000       0.00000000       0.00000000       0.00000000       0.00000000       0.00000000       0.00000000
H        2.80322908       3.22200163      26.78554583        0       1.00000000      -0.00174192      -0.00141710      -0.00535212      -0.00686069      -0.00998754      -0.00767591
H        1.39130441       0.82644341      26.81667952        0       1.00000000      -0.00565011      -0.00244787       0.00162341      -0.01265474       0.01019557      -0.00418960
H        4.22020405       2.40987845      29.00923027        0       1.00000000      -0.00047670      -0.00948398      -0.00032032      -0.00797688       0.00796986       0.02151187
H        0.01005264       3.25278065      26.81106761        0       1.00000000      -0.00251088      -0.00112434       0.00253668       0.01489402       0.00973788      -0.00584842
H        4.21133764       0.79187379      26.78479863        0       1.00000000      -0.00119607      -0.00286976       0.00159713       0.01067878      -0.01694848      -0.01466346
H        2.80640624       4.83643043      29.01791608        0       1.00000000       0.00080851       0.00601323      -0.00921305       0.00902866      -0.00344188       0.00558682
18
Lattice="5.612310241546866 0.0 0.0 0.0 4.860403243099165 0.0 0.0 0.0 44.58243212332868" Properties=species:S:1:pos:R:3:tags:I:1:masses:R:1:momenta:R:3:forces:R:3 KEmax=23.26679191048647 iter=50063 volume=1216.1236359717223 set_wall=T ns_energy=-11.64543956371956 last_walked_iter_clone=49942 energy=-11.645539683689666 stress="0.022443061701265168 -5.1051299154163704e-05 -7.371908709556193e-05 -5.1051299154163704e-05 0.022418975443914826 -2.0345291434708115e-05 -7.371908709556193e-05 -2.0345291434708115e-05 0.01136949194026319" pbc="T T F"
H        1.40307756       0.81006721      20.00000000        3       1.00000000       0.00000000       0.00000000       0.00000000       0.00000000       0.00000000       0.00000000
H        4.20923268       0.81006721      20.00000000        3       1.00000000       0.00000000       0.00000000       0.00000000       0.00000000       0.00000000       0.00000000
H        0.00000000       3.24026883      20.00000000        3       1.00000000       0.00000000       0.00000000       0.00000000       0.00000000       0.00000000       0.00000000
H        2.80615512       3.24026883      20.00000000        3       1.00000000       0.00000000       0.00000000       0.00000000       0.00000000       0.00000000       0.00000000
H        0.00000000       1.62013441      22.29121606        2       1.00000000       0.00000000       0.00000000       0.00000000       0.00000000       0.00000000       0.00000000
H        2.80615512       1.62013441      22.29121606        2       1.00000000       0.00000000       0.00000000       0.00000000       0.00000000       0.00000000       0.00000000
H        1.40307756       4.05033604      22.29121606        2       1.00000000       0.00000000       0.00000000       0.00000000       0.00000000       0.00000000       0.00000000
H        4.20923268       4.05033604      22.29121606        2       1.00000000       0.00000000       0.00000000       0.00000000       0.00000000       0.00000000       0.00000000
H        0.00000000       0.00000000      24.58243212        1       1.00000000       0.00000000       0.00000000       0.00000000       0.00000000       0.00000000       0.00000000
H        2.80615512       0.00000000      24.58243212        1       1.00000000       0.00000000       0.00000000       0.00000000       0.00000000       0.00000000       0.00000000
H        1.40307756       2.43020162      24.58243212        1       1.00000000       0.00000000       0.00000000       0.00000000       0.00000000       0.00000000       0.00000000
H        4.20923268       2.43020162      24.58243212        1       1.00000000       0.00000000       0.00000000       0.00000000       0.00000000       0.00000000       0.00000000
H        2.80527531       3.22530313      26.78873826        0       1.00000000      -0.00499435      -0.00464435       0.00693988      -0.00686069      -0.00998754      -0.00767591
H        1.39596039       0.82298976      26.81635238        0       1.00000000      -0.00327875       0.00772639      -0.00336616      -0.01265474       0.01019557      -0.00418960