21
Lattice="5.612310241546866 0.0 0.0 0.0 4.860403243099165 0.0 0.0 0.0 24.582432123328676" Properties=species:S:1:pos:R:3:tags:I:1:masses:R:1:momenta:R:3 KEmax=27.14459056223422 iter=99 volume=670.5618179858607 ns_energy=1023.5865902266498 last_walked_iter_clone=68 ns_P=0.0 config_n_global=99 ns_KE=25.150803961354327 pbc="T T F"
H        1.40307756       0.81006721      10.00000000        3       1.00000000       0.00000000       0.00000000       0.00000000
H        4.20923268       0.81006721      10.00000000        3       1.00000000       0.00000000       0.00000000       0.00000000
H        0.00000000       3.24026883      10.00000000        3       1.00000000       0.00000000       0.00000000       0.00000000
H        2.80615512       3.24026883      10.00000000        3       1.00000000       0.00000000       0.00000000       0.00000000
H        0.00000000       1.62013441      12.29121606        2       1.00000000       0.00000000       0.00000000       0.00000000
H        2.80615512       1.62013441      12.29121606        2       1.00000000       0.00000000       0.00000000       0.00000000
H        1.40307756       4.05033604      12.29121606        2       1.00000000       0.00000000       0.00000000       0.00000000
H        4.20923268       4.05033604      12.29121606        2       1.00000000       0.00000000       0.00000000       0.00000000
H        0.00000000       0.00000000      14.58243212        1       1.00000000       0.00000000       0.00000000       0.00000000
H        2.80615512       0.00000000      14.58243212        1       1.00000000       0.00000000       0.00000000       0.00000000
H        1.40307756       2.43020162      14.58243212        1       1.00000000       0.00000000       0.00000000       0.00000000
H        4.20923268       2.43020162      14.58243212        1       1.00000000       0.00000000       0.00000000       0.00000000
H        0.34696888       3.88507203      17.32057241        0       1.00000000       0.08921790      -2.59781971      -0.23514171
H        4.93406512       3.03251543      20.45483190        0       1.00000000      -0.97768243      -2.04975180       0.81561394
H        5.60958524       2.68374158       5.94766467        0       1.00000000      -0.63903322      -2.18552193       0.19362170
H        1.48247147       1.20171629      19.33028186        0       1.00000000       0.51159663       1.17883845      -1.84265254
H        4.06073083       4.07682856       6.88192714        0       1.00000000       0.10539884      -2.35145087      -2.01577294
H        3.13236661       0.42278306      20.66846502        0       1.00000000       1.12148687       1.09590936      -0.24585740
H        4.82156730       4.70906123       3.30355598        0       1.00000000      -0.91625403      -0.34576095      -2.90077096
H        4.84662134       4.12564668      16.69358831        0       1.00000000      -1.76529427      -0.48633694       1.02101633
H        2.05583942       1.17162669       4.34111897        0       1.00000000      -0.45591401       1.06615942       0.40208580
21
Lattice="5.612310241546866 0.0 0.0 0.0 4.860403243099165 0.0 0.0 0.0 24.582432123328676" Properties=species:S:1:pos:R:3:tags:I:1:masses:R:1:momenta:R:3 KEmax=27.14459056223422 iter=199 volume=670.5618179858607 ns_energy=160.87774190308983 last_walked_iter_clone=131 ns_P=0.0 config_n_global=199 ns_KE=26.228061180518942 pbc="T T F"
H        1.40307756       0.81006721      10.00000000        3       1.00000000       0.00000000       0.00000000       0.00000000
H        4.20923268       0.81006721      10.00000000        3       1.00000000       0.00000000       0.00000000       0.00000000
H        0.00000000       3.24026883      10.00000000        3       1.00000000       0.00000000       0.00000000       0.00000000
H        2.80615512       3.24026883      10.00000000        3       1.00000000       0.00000000       0.00000000       0.00000000
H        0.00000000       1.62013441      12.29121606        2       1.00000000       0.00000000       0.00000000       0.00000000
H        2.80615512       1.62013441      12.29121606        2       1.00000000       0.00000000       0.00000000       0.00000000
H        1.40307756       4.05033604      12.29121606        2       1.00000000       0.00000000       0.00000000       0.00000000
H        4.20923268       4.05033604      12.29121606        2       1.00000000       0.00000000       0.00000000       0.00000000
H        0.00000000       0.00000000      14.58243212        1       1.00000000       0.00000000       0.00000000       0.00000000
H        2.80615512       0.00000000      14.58243212        1       1.00000000       0.00000000       0.00000000       0.00000000
H        1.40307756       2.43020162      14.58243212        1       1.00000000       0.00000000       0.00000000       0.00000000
H        4.20923268       2.43020162      14.58243212        1       1.00000000       0.00000000       0.00000000       0.00000000
H        1.31323600       1.90288540      16.75284180        0       1.00000000       1.72563648       1.02201830       0.08582654
H        2.02552485       1.19878771      18.92575901        0       1.00000000      -0.05700115       0.95312952      -0.12039666
H        2.73896263       4.29315944       6.96917193        0       1.00000000      -1.70780431      -1.41056052       1.04178540
H        0.91497970       0.36802074      22.40790907        0       1.00000000      -0.98507556      -2.18641333      -0.64368907
H        0.82738122       4.31591467       2.69932292        0       1.00000000       2.02688708       0.13420595       0.63414280
H        4.28226422       1.58553996      20.86928981        0       1.00000000       2.61188461       0.20268263       1.42560028
H        2.24632205       1.68891006       6.71447824        0       1.00000000      -0.57553238       3.75285302      -0.85301664
H        2.93634234       2.15148779      19.71445465        0       1.00000000      -1.71407676      -1.38161570      -1.10917781
H        3.21821597       4.47665632       2.48700179        0       1.00000000      -0.82329641       0.05171815      -0.13878367
21
Lattice="5.612310241546866 0.0 0.0 0.0 4.860403243099165 0.0 0.0 0.0 24.582432123328676" Properties=species:S:1:pos:R:3:tags:I:1:masses:R:1:momenta:R:3 KEmax=27.14459056223422 iter=299 volume=670.5618179858607 ns_energy=53.07597545825028 last_walked_iter_clone=229 ns_P=0.0 config_n_global=299 ns_KE=24.40322219532247 pbc="T T F"
H        1.40307756       0.81006721      10.00000000        3       1.00000000       0.00000000       0.00000000       0.00000000
H        4.20923268       0.81006721      10.00000000        3       1.00000000       0.00000000       0.00000000       0.00000000
H        0.00000000       3.24026883      10.00000000        3       1.00000000       0.00000000       0.00000000       0.00000000
H        2.80615512       3.24026883      10.00000000        3       1.00000000       0.00000000       0.00000000       0.00000000
H        0.00000000       1.62013441      12.29121606        2       1.00000000       0.00000000       0.00000000       0.00000000
H        2.80615512       1.62013441      12.29121606        2       1.00000000       0.00000000       0.00000000       0.00000000
H        1.40307756       4.05033604      12.29121606        2       1.00000000       0.00000000       0.00000000       0.00000000
H        4.20923268       4.05033604      12.29121606        2       1.00000000       0.00000000       0.00000000       0.00000000
H        0.00000000       0.00000000      14.58243212        1       1.00000000       0.00000000       0.00000000       0.00000000
H        2.80615512       0.00000000      14.58243212        1       1.00000000       0.00000000       0.00000000       0.00000000
H        1.40307756       2.43020162      14.58243212        1       1.00000000       0.00000000       0.00000000       0.00000000
H        4.20923268       2.43020162      14.58243212        1       1.00000000       0.00000000       0.00000000       0.00000000
H        0.87971247       4.05400212      18.92203287        0       1.00000000      -0.04212682      -1.42998322       0.50582954
H        1.59283899       3.92064086      21.82738548        0       1.00000000       2.96128998      -0.10243838      -0.43972250
H        3.75549857       0.79329140       3.69727573        0       1.00000000      -2.94302215       1.66953504      -0.75372896
H        4.82832620       2.59098142      17.68669013        0       1.00000000       1.01958665      -1.90376758      -1.46604518
H        4.39139817       1.94259312       7.57239425        0       1.00000000      -1.51209715       1.12676386       0.22920340
H        1.26663076       3.88596944      16.63834671        0       1.00000000      -0.88904243       1.56277533      -1.80312908
H        0.88099738       1.95953137       3.70335081        0       1.00000000      -1.16695609       0.26567811      -0.32390951
H        3.59014078       3.31682477      22.46029452        0       1.00000000      -0.70229967      -0.60985884      -0.10523751
H        5.15034764       4.68011294       3.65549558        0       1.00000000       1.95632556      -0.59186934      -1.42032188
21
Lattice="5.612310241546866 0.0 0.0 0.0 4.860403243099165 0.0 0.0 0.0 24.582432123328676" Properties=species:S:1:pos:R:3:tags:I:1:masses:R:1:momenta:R:3 KEmax=27.14459056223422 iter=399 volume=670.5618179858607 ns_energy=29.233821674317458 last_walked_iter_clone=198 ns_P=0.0 config_n_global=399 ns_KE=24.235084761822037 pbc="T T F"
H        1.40307756       0.81006721      10.00000000        3       1.00000000       0.00000000       0.00000000       0.00000000
H        4.20923268       0.81006721      10.00000000        3       1.00000000       0.00000000       0.00000000       0.00000000
H        0.00000000       3.24026883      10.00000000        3       1.00000000       0.00000000       0.00000000       0.00000000
H        2.80615512       3.24026883      10.00000000        3       1.00000000       0.00000000       0.00000000       0.00000000
H        0.00000000       1.62013441      12.29121606        2       1.00000000       0.00000000       0.00000000       0.00000000
H        2.80615512       1.62013441      12.29121606        2       1.00000000       0.00000000       0.00000000       0.00000000
H        1.40307756       4.05033604      12.29121606        2       1.00000000       0.00000000       0.00000000       0.00000000
H        4.20923268       4.05033604      12.29121606        2       1.00000000       0.00000000       0.00000000       0.00000000
H        0.00000000       0.00000000      14.58243212        1       1.00000000       0.00000000       0.00000000       0.00000000
H        2.80615512       0.00000000      14.58243212        1       1.00000000       0.00000000       0.00000000       0.00000000
H        1.40307756       2.43020162      14.58243212        1       1.00000000       0.00000000       0.00000000       0.00000000
H        4.20923268       2.43020162      14.58243212        1       1.00000000       0.00000000       0.00000000       0.00000000
H        0.84344756       4.07029160      18.92026530        0       1.00000000      -0.88450388       0.47490892      -0.57189916
H        1.60131711       3.88901893      21.82403112        0       1.00000000       0.17853993       2.02983470      -1.00257594
H        3.71690343       0.84291710       3.70281603        0       1.00000000      -0.94751096       1.65052399      -0.02223496
H        4.84994182       2.57297585      17.67429948        0       1.00000000       0.23609250      -0.12603928      -1.85270892
H        4.39230777       1.89853264       7.55344561        0       1.00000000      -0.06349888      -1.39210369      -3.99933249
H        1.28104627       3.88639473      16.68450819        0       1.00000000       0.91810448      -0.48057682       0.66772807
H        0.92868295       1.97919707       3.70189831        0       1.00000000      -0.22597657      -0.57084538       0.78699783
H        3.59554283       3.26357229      22.42720984        0       1.00000000       1.35814647       0.31729100      -0.32489326
H        5.22162595       4.63351419       3.64563531        0       1.00000000       3.23190675      -1.30914034       0.43446813
21
Lattice="5.612310241546866 0.0 0.0 0.0 4.860403243099165 0.0 0.0 0.0 24.582432123328676" Properties=species:S:1:pos:R:3:tags:I:1:masses:R:1:momenta:R:3 KEmax=27.14459056223422 iter=499 volume=670.5618179858607 ns_energy=18.739138192490955 last_walked_iter_clone=394 ns_P=0.0 config_n_global=499 ns_KE=25.15602112868444 pbc="T T F"
H        1.40307756       0.81006721      10.00000000        3       1.00000000       0.00000000       0.00000000       0.00000000
H        4.20923268       0.81006721      10.00000000        3       1.00000000       0.00000000       0.00000000       0.00000000
H        0.00000000       3.24026883      10.00000000        3       1.00000000       0.00000000       0.00000000       0.00000000
H        2.80615512       3.24026883      10.00000000        3       1.00000000       0.00000000       0.00000000       0.00000000
H        0.00000000       1.62013441      12.29121606        2       1.00000000       0.00000000       0.00000000       0.00000000
H        2.80615512       1.62013441      12.29121606        2       1.00000000       0.00000000       0.00000000       0.00000000
H        1.40307756       4.05033604      12.29121606        2       1.00000000       0.00000000       0.00000000       0.00000000
H        4.20923268       4.05033604      12.29121606        2       1.00000000       0.00000000       0.00000000       0.00000000
H        0.00000000       0.00000000      14.58243212        1       1.00000000       0.00000000       0.00000000       0.00000000
H        2.80615512       0.00000000      14.58243212        1       1.00000000       0.00000000       0.00000000       0.00000000
H        1.40307756       2.43020162      14.58243212        1       1.00000000       0.00000000       0.00000000       0.00000000
H        4.20923268       2.43020162      14.58243212        1       1.00000000       0.00000000       0.00000000       0.00000000
H        0.00620202       4.49198940      19.89998271        0       1.00000000       0.16390008      -0.89898430      -0.08537398
H        3.72052320       0.64985996      18.54089760        0       1.00000000       0.53972876      -1.48310925       0.08350984
H        5.41279294       1.09888875       2.90076375        0       1.00000000       2.11802071       3.61659046       0.75593381
H        3.87293582       0.93250749      20.95208628        0       1.00000000      -0.14387638       1.70324429       3.27930936
H        3.94352745       4.33686449       2.16299867        0       1.00000000       0.95995876       1.49878961      -2.22647603
H        0.83843952       1.25778288      16.43334466        0       1.00000000      -0.31287472       0.05056037       0.19008275
H        1.97439313       4.69039319       4.32541449        0       1.00000000      -0.79431406      -0.25267723       1.78299347
H        1.52115973       1.01347311      18.89294841        0       1.00000000       0.19507619      -1.24751446      -0.19780990
H        2.20149685       3.18431910       6.25081370        0       1.00000000      -0.14430825       0.33476856       1.12122963
21
Lattice="5.612310241546866 0.0 0.0 0.0 4.860403243099165 0.0 0.0 0.0 24.582432123328676" Properties=species:S:1:pos:R:3:tags:I:1:masses:R:1:momenta:R:3 KEmax=27.14459056223422 iter=599 volume=670.5618179858607 ns_energy=16.94784031751452 last_walked_iter_clone=526 ns_P=0.0 config_n_global=599 ns_KE=23.54795023339019 pbc="T T F"
H        1.40307756       0.81006721      10.00000000        3       1.00000000       0.00000000       0.00000000       0.00000000
H        4.20923268       0.81006721      10.00000000        3       1.00000000       0.00000000       0.00000000       0.00000000
H        0.00000000       3.24026883      10.00000000        3       1.00000000       0.00000000       0.00000000       0.00000000
H        2.80615512       3.24026883      10.00000000        3       1.00000000       0.00000000       0.00000000       0.00000000
H        0.00000000       1.62013441      12.29121606        2       1.00000000       0.00000000       0.00000000       0.00000000
H        2.80615512       1.62013441      12.29121606        2       1.00000000       0.00000000       0.00000000       0.00000000
H        1.40307756       4.05033604      12.29121606        2       1.00000000       0.00000000       0.00000000       0.00000000
H        4.20923268       4.05033604      12.29121606        2       1.00000000       0.00000000       0.00000000       0.00000000
H        0.00000000       0.00000000      14.58243212        1       1.00000000       0.00000000       0.00000000       0.00000000
H        2.80615512       0.00000000      14.58243212        1       1.00000000       0.00000000       0.00000000       0.00000000
H        1.40307756       2.43020162      14.58243212        1       1.00000000       0.00000000       0.00000000       0.00000000
H        4.20923268       2.43020162      14.58243212        1       1.00000000       0.00000000       0.00000000       0.00000000
H        0.90809793       2.83536860      23.00531795        0       1.00000000       1.29089519       1.10820356      -0.40937041
H        1.41946664       0.85108233      17.52084243        0       1.00000000      -1.12600363      -0.69031125       1.93357594
H        5.38590064       0.83277175       8.14695154        0       1.00000000       1.81713029      -0.25758722       0.49793286
H        2.99200394       3.35763116      22.10072104        0       1.00000000       1.00042581      -1.92684437       1.39836521
H        3.23260223       0.35058393       3.75835711        0       1.00000000       1.55059761       1.58330180       1.39703097
H        5.39719974       2.03025875      21.00678705        0       1.00000000       0.48947029      -2.54126121      -0.78462267
H        0.54623406       4.46501903       3.33327731        0       1.00000000      -1.63754368       0.56214637      -2.17221426
H        5.19410562       4.70575103      20.99605936        0       1.00000000       0.63504161      -0.79221883      -2.13438902
H        1.90853382       3.12839824       1.29166268        0       1.00000000       0.66815688       0.56079840      -0.16056891
21
Lattice="5.612310241546866 0.0 0.0 0.0 4.860403243099165 0.0 0.0 0.0 24.582432123328676" Properties=species:S:1:pos:R:3:tags:I:1:masses:R:1:momenta:R:3 KEmax=27.14459056223422 iter=699 volume=670.5618179858607 ns_energy=15.26313700310651 last_walked_iter_clone=595 ns_P=0.0 config_n_global=699 ns_KE=24.666226229696527 pbc="T T F"
H        1.40307756       0.81006721      10.00000000        3       1.00000000       0.00000000       0.00000000       0.00000000
H        4.20923268       0.81006721      10.00000000        3       1.00000000       0.00000000       0.00000000       0.00000000
H        0.00000000       3.24026883      10.00000000        3       1.00000000       0.00000000       0.00000000       0.00000000
H        2.80615512       3.24026883      10.00000000        3       1.00000000       0.00000000       0.00000000       0.00000000
H        0.00000000       1.62013441      12.29121606        2       1.00000000       0.00000000       0.00000000       0.00000000
H        2.80615512       1.62013441      12.29121606        2       1.00000000       0.00000000       0.00000000       0.00000000
H        1.40307756       4.05033604      12.29121606        2       1.00000000       0.00000000       0.00000000       0.00000000
H        4.20923268       4.05033604      12.29121606        2       1.00000000       0.00000000       0.00000000       0.00000000
H        0.00000000       0.00000000      14.58243212        1       1.00000000       0.00000000       0.00000000       0.00000000
H        2.80615512       0.00000000      14.58243212        1       1.00000000       0.00000000       0.00000000       0.00000000
H        1.40307756       2.43020162      14.58243212        1       1.00000000       0.00000000       0.00000000       0.00000000
H        4.20923268       2.43020162      14.58243212        1       1.00000000       0.00000000       0.00000000       0.00000000
H        2.01624014       3.64983679      22.36667364        0       1.00000000      -0.86687426       2.21083653      -2.49411189
H        2.71428338       2.30723274      19.04332566        0       1.00000000       1.07401825       0.38025323       0.26451812
H        3.20166715       0.36524000       5.86491049        0       1.00000000       0.47135792      -1.20384328       0.19483808
H        0.21741674       3.92474364      17.80534987        0       1.00000000      -1.15702514      -1.00909257       1.85309931
H        3.76412944       2.33847538       7.40944979        0       1.00000000       0.83161032       1.52143483      -1.57107825
H        2.28291946       4.48788656      20.08006844        0       1.00000000       2.08535763      -0.23721284      -2.24253258
H        1.36153310       3.53019435       6.64185131        0       1.00000000       1.12092513       0.52812615      -0.58527804
H        5.65717924       1.61536968      23.30029073        0       1.00000000       1.55855626      -0.32744212      -0.11779599
H        2.17863564       1.99941581       3.99375464        0       1.00000000       1.09497058       1.33874239      -2.50525271
21
Lattice="5.612310241546866 0.0 0.0 0.0 4.860403243099165 0.0 0.0 0.0 24.582432123328676" Properties=species:S:1:pos:R:3:tags:I:1:masses:R:1:momenta:R:3 KEmax=27.14459056223422 iter=799 volume=670.5618179858607 ns_energy=14.090702339722757 last_walked_iter_clone=675 ns_P=0.0 config_n_global=799 ns_KE=18.3796083934793 pbc="T T F"
H        1.40307756       0.81006721      10.00000000        3       1.00000000       0.00000000       0.00000000       0.00000000
H        4.20923268       0.81006721      10.00000000        3       1.00000000       0.00000000       0.00000000       0.00000000
H        0.00000000       3.24026883      10.00000000        3       1.00000000       0.00000000       0.00000000       0.00000000
H        2.80615512       3.24026883      10.00000000        3       1.00000000       0.00000000       0.00000000       0.00000000
H        0.00000000       1.62013441      12.29121606        2       1.00000000       0.00000000       0.00000000       0.00000000
H        2.80615512       1.62013441      12.29121606        2       1.00000000       0.00000000       0.00000000       0.00000000
H        1.40307756       4.05033604      12.29121606        2       1.00000000       0.00000000       0.00000000       0.00000000
H        4.20923268       4.05033604      12.29121606        2       1.00000000       0.00000000       0.00000000       0.00000000
H        0.00000000       0.00000000      14.58243212        1       1.00000000       0.00000000       0.00000000       0.00000000
H        2.80615512       0.00000000      14.58243212        1       1.00000000       0.00000000       0.00000000       0.00000000
H        1.40307756       2.43020162      14.58243212        1       1.00000000       0.00000000       0.00000000       0.00000000
H        4.20923268       2.43020162      14.58243212        1       1.00000000       0.00000000       0.00000000       0.00000000
H        5.35892129       2.57441265      17.76204219        0       1.00000000      -1.49024095       0.13671301      -0.75893037
H        1.86830029       3.77958065      21.95974454        0       1.00000000      -0.53353886      -0.14720979       2.60949108
H        4.49261467       4.13532172       6.05019389        0       1.00000000       0.42484892      -0.38185851      -2.45002837
H        4.34137793       0.11139305      22.97647821        0       1.00000000      -0.91512444       0.25169501      -0.43153673
H        0.68226988       1.16402117       4.65437339        0       1.00000000      -0.84475170      -1.16202765      -1.78214488
H        0.83684810       2.06826677      19.39433423        0       1.00000000      -0.51600849       1.35038896      -1.61012340
H        2.82045311       2.78717387       6.37171571        0       1.00000000       0.83516997      -0.39665804       0.89521927
H        4.18669156       0.34048022      20.32084803        0       1.00000000       0.97437113      -0.77724705      -2.23195613
H        4.57841644       1.57749090       2.48341884        0       1.00000000       0.00656284       1.07668592       0.37284009
21
Lattice="5.612310241546866 0.0 0.0 0.0 4.860403243099165 0.0 0.0 0.0 24.582432123328676" Properties=species:S:1:pos:R:3:tags:I:1:masses:R:1:momenta:R:3 KEmax=27.14459056223422 iter=899 volume=670.5618179858607 ns_energy=12.901097473303448 last_walked_iter_clone=813 ns_P=0.0 config_n_global=899 ns_KE=21.884932024847533 pbc="T T F"
H        1.40307756       0.81006721      10.00000000        3       1.00000000       0.00000000       0.00000000       0.00000000
H        4.20923268       0.81006721      10.00000000        3       1.00000000       0.00000000       0.00000000       0.00000000
H        0.00000000       3.24026883      10.00000000        3       1.00000000       0.00000000       0.00000000       0.00000000
H        2.80615512       3.24026883      10.00000000        3       1.00000000       0.00000000       0.00000000       0.00000000
H        0.00000000       1.62013441      12.29121606        2       1.00000000       0.00000000       0.00000000       0.00000000
H        2.80615512       1.62013441      12.29121606        2       1.00000000       0.00000000       0.00000000       0.00000000
H        1.40307756       4.05033604      12.29121606        2       1.00000000       0.00000000       0.00000000       0.00000000
H        4.20923268       4.05033604      12.29121606        2       1.00000000       0.00000000       0.00000000       0.00000000
H        0.00000000       0.00000000      14.58243212        1       1.00000000       0.00000000       0.00000000       0.00000000
H        2.80615512       0.00000000      14.58243212        1       1.00000000       0.00000000       0.00000000       0.00000000
H        1.40307756       2.43020162      14.58243212        1       1.00000000       0.00000000       0.00000000       0.00000000
H        4.20923268       2.43020162      14.58243212        1       1.00000000       0.00000000       0.00000000       0.00000000
H        4.08991066       0.38973506      18.92581043        0       1.00000000      -2.61377882      -1.16135131       1.17090347
H        1.81694075       1.91649230      17.02802094        0       1.00000000       0.48728813      -0.67046796       0.27864409
H        3.09496681       0.75823225       4.81109050        0       1.00000000      -0.04001966       1.34976511      -0.33054157
H        1.70928966       1.74402399      21.28420664        0       1.00000000       0.09890408       1.14649730       0.46777377
H        5.01795922       1.48541828       1.70966611        0       1.00000000       0.81104011       0.88027856      -0.06745249
H        5.40653890       3.21528060      24.41694268        0       1.00000000      -0.48236478       2.06087428      -0.44670816
H        4.69747783       3.16474446       4.49160223        0       1.00000000       0.78747316      -0.11356593       1.38277217
H        2.53418894       3.06530043      24.08558491        0       1.00000000      -0.91127600      -1.97509326       1.98241050
H        1.87644454       0.01816143       2.11341373        0       1.00000000      -0.99497231      -2.04714429       2.73386466
21
Lattice="5.612310241546866 0.0 0.0 0.0 4.860403243099165 0.0 0.0 0.0 24.582432123328676" Properties=species:S:1:pos:R:3:tags:I:1:masses:R:1:momenta:R:3 KEmax=27.14459056223422 iter=999 volume=670.5618179858607 ns_energy=11.867636181051791 last_walked_iter_clone=906 ns_P=0.0 config_n_global=999 ns_KE=20.641462084727202 pbc="T T F"
H        1.40307756       0.81006721      10.00000000        3       1.00000000       0.00000000       0.00000000       0.00000000
H        4.20923268       0.81006721      10.00000000        3       1.00000000       0.00000000       0.00000000       0.00000000
H        0.00000000       3.24026883      10.00000000        3       1.00000000       0.00000000       0.00000000       0.00000000
H        2.80615512       3.24026883      10.00000000        3       1.00000000       0.00000000       0.00000000       0.00000000
H        0.00000000       1.62013441      12.29121606        2       1.00000000       0.00000000       0.00000000       0.00000000
H        2.80615512       1.62013441      12.29121606        2       1.00000000       0.00000000       0.00000000       0.00000000
H        1.40307756       4.05033604      12.29121606        2       1.00000000       0.00000000       0.00000000       0.00000000
H        4.20923268       4.05033604      12.29121606        2       1.00000000       0.00000000       0.00000000       0.00000000
H        0.00000000       0.00000000      14.58243212        1       1.00000000       0.00000000       0.00000000       0.00000000
H        2.80615512       0.00000000      14.58243212        1       1.00000000       0.00000000       0.00000000       0.00000000
H        1.40307756       2.43020162      14.58243212        1       1.00000000       0.00000000       0.00000000       0.00000000
H        4.20923268       2.43020162      14.58243212        1       1.00000000       0.00000000       0.00000000       0.00000000
H        2.15984281       2.22181717      22.07251948        0       1.00000000       2.14708720       0.46481160      -0.07320211
H        3.14779998       4.06921197      19.99083445        0       1.00000000       2.43574039      -1.35569994       0.53444119