21
Lattice="5.612310241546866 0.0 0.0 0.0 4.860403243099165 0.0 0.0 0.0 24.582432123328676" Properties=species:S:1:pos:R:3:tags:I:1:masses:R:1:momenta:R:3:forces:R:3 KEmax=27.14459056223422 iter=95807 volume=670.5618179858607 ns_energy=-14.08786025743715 last_walked_iter_clone=95629 energy=-14.08786025767585 stress="0.021478134420575043 -1.6749372627609144e-08 -1.0665562931181091e-07 -1.6749372627609144e-08 0.021537855829615257 -3.738677875996233e-08 -1.0665562931181091e-07 -3.738677875996233e-08 0.010791093354942119" pbc="T T F"
H        1.40307756       0.81006721      10.00000000        3       1.00000000       0.00000000       0.00000000       0.00000000       0.00000000       0.00000000       0.00000000
H        4.20923268       0.81006721      10.00000000        3       1.00000000       0.00000000       0.00000000       0.00000000       0.00000000       0.00000000       0.00000000
H        0.00000000       3.24026883      10.00000000        3       1.00000000       0.00000000       0.00000000       0.00000000       0.00000000       0.00000000       0.00000000
H        2.80615512       3.24026883      10.00000000        3       1.00000000       0.00000000       0.00000000       0.00000000       0.00000000       0.00000000       0.00000000
H        0.00000000       1.62013441      12.29121606        2       1.00000000       0.00000000       0.00000000       0.00000000       0.00000000       0.00000000       0.00000000
H        2.80615512       1.62013441      12.29121606        2       1.00000000       0.00000000       0.00000000       0.00000000       0.00000000       0.00000000       0.00000000
H        1.40307756       4.05033604      12.29121606        2       1.00000000       0.00000000       0.00000000       0.00000000       0.00000000       0.00000000       0.00000000
H        4.20923268       4.05033604      12.29121606        2       1.00000000       0.00000000       0.00000000       0.00000000       0.00000000       0.00000000       0.00000000
H        0.00000000       0.00000000      14.58243212        1       1.00000000       0.00000000       0.00000000       0.00000000       0.00000000       0.00000000       0.00000000
H        2.80615512       0.00000000      14.58243212        1       1.00000000       0.00000000       0.00000000       0.00000000       0.00000000       0.00000000       0.00000000
H        1.40307756       2.43020162      14.58243212        1       1.00000000       0.00000000       0.00000000       0.00000000       0.00000000       0.00000000       0.00000000
H        4.20923268       2.43020162      14.58243212        1       1.00000000       0.00000000       0.00000000       0.00000000       0.00000000       0.00000000       0.00000000
H        4.20923034       0.79347655      16.80071675        0       1.00000000      -0.00000188       0.00000221       0.00000260       0.00000072       0.00000380       0.00000059
H        1.40307886       0.81922836      16.83185465        0       1.00000000       0.00000360      -0.00000194      -0.00000011       0.00000987       0.00000036      -0.00000876
H       -0.00000010       4.86040335       7.77172885        0       1.00000000      -0.00000130      -0.00000242      -0.00000120       0.00000182       0.00000475       0.00000828
H        4.20922872       2.42882266      19.01469244        0       1.00000000      -0.00000409       0.00000273       0.00000215       0.00000531       0.00000343      -0.00000458
H        2.80616152       4.86040275       7.77172727        0       1.00000000      -0.00000061      -0.00000056       0.00000048       0.00000221       0.00001984      -0.00000412
H        2.79878860       3.24443356      16.79599559        0       1.00000000      -0.00000475       0.00000167      -0.00000178       0.00000196       0.00000840       0.00000903
H        1.40307986       2.43020684       7.77172833        0       1.00000000      -0.00000311       0.00000374       0.00000099      -0.00000622      -0.00001432       0.00000655
H        0.00736299       3.24443211      16.79599970        0       1.00000000      -0.00000375       0.00000682      -0.00000856      -0.00001484      -0.00000613       0.00000421
H        4.20923449       2.43020456       7.77172391        0       1.00000000       0.00000319       0.00000754       0.00000002      -0.00000401      -0.00000279      -0.00000699
21
Lattice="5.612310241546866 0.0 0.0 0.0 4.860403243099165 0.0 0.0 0.0 24.582432123328676" Properties=species:S:1:pos:R:3:tags:I:1:masses:R:1:momenta:R:3:forces:R:3 KEmax=27.14459056223422 iter=95807 volume=670.5618179858607 ns_energy=-14.087860257438557 last_walked_iter_clone=95736 energy=-14.08786025767585 stress="0.021478134420575043 -1.6749372627609144e-08 -1.0665562931181091e-07 -1.6749372627609144e-08 0.021537855829615257 -3.738677875996233e-08 -1.0665562931181091e-07 -3.738677875996233e-08 0.010791093354942119" pbc="T T F"
H        1.40307756       0.81006721      10.00000000        3       1.00000000       0.00000000       0.00000000       0.00000000       0.00000000       0.00000000       0.00000000
H        4.20923268       0.81006721      10.00000000        3       1.00000000       0.00000000       0.00000000       0.00000000       0.00000000       0.00000000       0.00000000
H        0.00000000       3.24026883      10.00000000        3       1.00000000       0.00000000       0.00000000       0.00000000       0.00000000       0.00000000       0.00000000
H        2.80615512       3.24026883      10.00000000        3       1.00000000       0.00000000       0.00000000       0.00000000       0.00000000       0.00000000       0.00000000
H        0.00000000       1.62013441      12.29121606        2       1.00000000       0.00000000       0.00000000       0.00000000       0.00000000       0.00000000       0.00000000
H        2.80615512       1.62013441      12.29121606        2       1.00000000       0.00000000       0.00000000       0.00000000       0.00000000       0.00000000       0.00000000
H        1.40307756       4.05033604      12.29121606        2       1.00000000       0.00000000       0.00000000       0.00000000       0.00000000       0.00000000       0.00000000
H        4.20923268       4.05033604      12.29121606        2       1.00000000       0.00000000       0.00000000       0.00000000       0.00000000       0.00000000       0.00000000
H        0.00000000       0.00000000      14.58243212        1       1.00000000       0.00000000       0.00000000       0.00000000       0.00000000       0.00000000       0.00000000
H        2.80615512       0.00000000      14.58243212        1       1.00000000       0.00000000       0.00000000       0.00000000       0.00000000       0.00000000       0.00000000
H        1.40307756       2.43020162      14.58243212        1       1.00000000       0.00000000       0.00000000       0.00000000       0.00000000       0.00000000       0.00000000
H        4.20923268       2.43020162      14.58243212        1       1.00000000       0.00000000       0.00000000       0.00000000       0.00000000       0.00000000       0.00000000
H        4.20922733       0.79347553      16.80072190        0       1.00000000       0.00000291       0.00000969       0.00000127       0.00000072       0.00000380       0.00000059
H        1.40306719       0.81922236      16.83185133        0       1.00000000       0.00000477      -0.00000117       0.00000123       0.00000987       0.00000036      -0.00000876
H        5.61231132      -0.00000110       7.77172842        0       1.00000000      -0.00000225      -0.00000462       0.00000121       0.00000182       0.00000475       0.00000828
H        4.20922193       2.42881737      19.01469222        0       1.00000000       0.00000111      -0.00000014       0.00000104       0.00000531       0.00000343      -0.00000458
H        2.80615120      -0.00000081       7.77172553        0       1.00000000       0.00000373      -0.00000230       0.00000045       0.00000221       0.00001984      -0.00000412
H        2.79878598       3.24442830      16.79599858        0       1.00000000      -0.00000327      -0.00000583       0.00000272       0.00000196       0.00000840       0.00000903
H        1.40307417       2.43019687       7.77172918        0       1.00000000       0.00000139       0.00000151       0.00000006      -0.00000622      -0.00001432       0.00000655
H        0.00735965       3.24443363      16.79600175        0       1.00000000       0.00000211       0.00000537      -0.00000054      -0.00001484      -0.00000613       0.00000421
H        4.20922881       2.43020265       7.77172352        0       1.00000000       0.00000079      -0.00000844       0.00000473      -0.00000401      -0.00000279      -0.00000699
21
Lattice="5.612310241546866 0.0 0.0 0.0 4.860403243099165 0.0 0.0 0.0 24.582432123328676" Properties=species:S:1:pos:R:3:tags:I:1:masses:R:1:momenta:R:3:forces:R:3 KEmax=27.14459056223422 iter=95807 volume=670.5618179858607 ns_energy=-14.087860257449432 last_walked_iter_clone=95534 energy=-14.08786025767585 stress="0.021478134420575043 -1.6749372627609144e-08 -1.0665562931181091e-07 -1.6749372627609144e-08 0.021537855829615257 -3.738677875996233e-08 -1.0665562931181091e-07 -3.738677875996233e-08 0.010791093354942119" pbc="T T F"
H        1.40307756       0.81006721      10.00000000        3       1.00000000       0.00000000       0.00000000       0.00000000       0.00000000       0.00000000       0.00000000
H        4.20923268       0.81006721      10.00000000        3       1.00000000       0.00000000       0.00000000       0.00000000       0.00000000       0.00000000       0.00000000
H        0.00000000       3.24026883      10.00000000        3       1.00000000       0.00000000       0.00000000       0.00000000       0.00000000       0.00000000       0.00000000
H        2.80615512       3.24026883      10.00000000        3       1.00000000       0.00000000       0.00000000       0.00000000       0.00000000       0.00000000       0.00000000
H        0.00000000       1.62013441      12.29121606        2       1.00000000       0.00000000       0.00000000       0.00000000       0.00000000       0.00000000       0.00000000
H        2.80615512       1.62013441      12.29121606        2       1.00000000       0.00000000       0.00000000       0.00000000       0.00000000       0.00000000       0.00000000
H        1.40307756       4.05033604      12.29121606        2       1.00000000       0.00000000       0.00000000       0.00000000       0.00000000       0.00000000       0.00000000
H        4.20923268       4.05033604      12.29121606        2       1.00000000       0.00000000       0.00000000       0.00000000       0.00000000       0.00000000       0.00000000
H        0.00000000       0.00000000      14.58243212        1       1.00000000       0.00000000       0.00000000       0.00000000       0.00000000       0.00000000       0.00000000
H        2.80615512       0.00000000      14.58243212        1       1.00000000       0.00000000       0.00000000       0.00000000       0.00000000       0.00000000       0.00000000
H        1.40307756       2.43020162      14.58243212        1       1.00000000       0.00000000       0.00000000       0.00000000       0.00000000       0.00000000       0.00000000
H        4.20923268       2.43020162      14.58243212        1       1.00000000       0.00000000       0.00000000       0.00000000       0.00000000       0.00000000       0.00000000
H        4.20923462       0.79346923      16.80071512        0       1.00000000      -0.00000191       0.00000537       0.00000730       0.00000072       0.00000380       0.00000059
H        1.40307493       0.81921902      16.83184205        0       1.00000000       0.00000191      -0.00000324       0.00000018       0.00000987       0.00000036      -0.00000876
H       -0.00000694       4.86040516       7.77172510        0       1.00000000      -0.00000466      -0.00000284      -0.00000219       0.00000182       0.00000475       0.00000828
H        4.20922263       2.42881268      19.01468925        0       1.00000000      -0.00000074       0.00000316      -0.00000624       0.00000531       0.00000343      -0.00000458
H        2.80615278      -0.00000351       7.77172750        0       1.00000000      -0.00000323       0.00000207       0.00000413       0.00000221       0.00001984      -0.00000412
H        2.79879090       3.24442864      16.79599906        0       1.00000000      -0.00000782       0.00000560       0.00000531       0.00000196       0.00000840       0.00000903
H        1.40307518       2.43020196       7.77172961        0       1.00000000      -0.00000605       0.00000553       0.00000512      -0.00000622      -0.00001432       0.00000655
H        0.00736564       3.24442525      16.79600322        0       1.00000000      -0.00000512      -0.00000617      -0.00000324      -0.00001484      -0.00000613       0.00000421
H        4.20922776       2.43020158       7.77172502        0       1.00000000      -0.00000276      -0.00000204       0.00000004      -0.00000401      -0.00000279      -0.00000699
21
Lattice="5.612310241546866 0.0 0.0 0.0 4.860403243099165 0.0 0.0 0.0 24.582432123328676" Properties=species:S:1:pos:R:3:tags:I:1:masses:R:1:momenta:R:3:forces:R:3 KEmax=27.14459056223422 iter=95807 volume=670.5618179858607 ns_energy=-14.08786025744484 last_walked_iter_clone=95758 energy=-14.08786025767585 stress="0.021478134420575043 -1.6749372627609144e-08 -1.0665562931181091e-07 -1.6749372627609144e-08 0.021537855829615257 -3.738677875996233e-08 -1.0665562931181091e-07 -3.738677875996233e-08 0.010791093354942119" pbc="T T F"
H        1.40307756       0.81006721      10.00000000        3       1.00000000       0.00000000       0.00000000       0.00000000       0.00000000       0.00000000       0.00000000
H        4.20923268       0.81006721      10.00000000        3       1.00000000       0.00000000       0.00000000       0.00000000       0.00000000       0.00000000       0.00000000
H        0.00000000       3.24026883      10.00000000        3       1.00000000       0.00000000       0.00000000       0.00000000       0.00000000       0.00000000       0.00000000
H        2.80615512       3.24026883      10.00000000        3       1.00000000       0.00000000       0.00000000       0.00000000       0.00000000       0.00000000       0.00000000
H        0.00000000       1.62013441      12.29121606        2       1.00000000       0.00000000       0.00000000       0.00000000       0.00000000       0.00000000       0.00000000
H        2.80615512       1.62013441      12.29121606        2       1.00000000       0.00000000       0.00000000       0.00000000       0.00000000       0.00000000       0.00000000
H        1.40307756       4.05033604      12.29121606        2       1.00000000       0.00000000       0.00000000       0.00000000       0.00000000       0.00000000       0.00000000
H        4.20923268       4.05033604      12.29121606        2       1.00000000       0.00000000       0.00000000       0.00000000       0.00000000       0.00000000       0.00000000
H        0.00000000       0.00000000      14.58243212        1       1.00000000       0.00000000       0.00000000       0.00000000       0.00000000       0.00000000       0.00000000
H        2.80615512       0.00000000      14.58243212        1       1.00000000       0.00000000       0.00000000       0.00000000       0.00000000       0.00000000       0.00000000
H        1.40307756       2.43020162      14.58243212        1       1.00000000       0.00000000       0.00000000       0.00000000       0.00000000       0.00000000       0.00000000
H        4.20923268       2.43020162      14.58243212        1       1.00000000       0.00000000       0.00000000       0.00000000       0.00000000       0.00000000       0.00000000
H        4.20923560       0.79347251      16.80071855        0       1.00000000       0.00000692      -0.00000515       0.00000488       0.00000072       0.00000380       0.00000059
H        1.40307948       0.81922612      16.83184712        0       1.00000000       0.00000730      -0.00000628       0.00000201       0.00000987       0.00000036      -0.00000876
H        5.61231388       4.86040660       7.77173426        0       1.00000000      -0.00000789       0.00000350       0.00000269       0.00000182       0.00000475       0.00000828
H        4.20922407       2.42882246      19.01469174        0       1.00000000      -0.00000448      -0.00000182      -0.00000024       0.00000531       0.00000343      -0.00000458
H        2.80615514       0.00000085       7.77172411        0       1.00000000       0.00000192       0.00000156       0.00000571       0.00000221       0.00001984      -0.00000412
H        2.79878661       3.24443067      16.79600046        0       1.00000000      -0.00000131      -0.00000191      -0.00000201       0.00000196       0.00000840       0.00000903
H        1.40307676       2.43020248       7.77172811        0       1.00000000      -0.00000168      -0.00000157       0.00000805      -0.00000622      -0.00001432       0.00000655
H        0.00736113       3.24442908      16.79600242        0       1.00000000       0.00000410      -0.00000142       0.00000152      -0.00001484      -0.00000613       0.00000421
H        4.20922809       2.43020402       7.77172813        0       1.00000000       0.00000357       0.00000243      -0.00000171      -0.00000401      -0.00000279      -0.00000699
21
Lattice="5.612310241546866 0.0 0.0 0.0 4.860403243099165 0.0 0.0 0.0 24.582432123328676" Properties=species:S:1:pos:R:3:tags:I:1:masses:R:1:momenta:R:3:forces:R:3 KEmax=27.14459056223422 iter=95807 volume=670.5618179858607 ns_energy=-14.087860257438626 last_walked_iter_clone=95626 energy=-14.08786025767585 stress="0.021478134420575043 -1.6749372627609144e-08 -1.0665562931181091e-07 -1.6749372627609144e-08 0.021537855829615257 -3.738677875996233e-08 -1.0665562931181091e-07 -3.738677875996233e-08 0.010791093354942119" pbc="T T F"
H        1.40307756       0.81006721      10.00000000        3       1.00000000       0.00000000       0.00000000       0.00000000       0.00000000       0.00000000       0.00000000
H        4.20923268       0.81006721      10.00000000        3       1.00000000       0.00000000       0.00000000       0.00000000       0.00000000       0.00000000       0.00000000
H        0.00000000       3.24026883      10.00000000        3       1.00000000       0.00000000       0.00000000       0.00000000       0.00000000       0.00000000       0.00000000
H        2.80615512       3.24026883      10.00000000        3       1.00000000       0.00000000       0.00000000       0.00000000       0.00000000       0.00000000       0.00000000
H        0.00000000       1.62013441      12.29121606        2       1.00000000       0.00000000       0.00000000       0.00000000       0.00000000       0.00000000       0.00000000
H        2.80615512       1.62013441      12.29121606        2       1.00000000       0.00000000       0.00000000       0.00000000       0.00000000       0.00000000       0.00000000
H        1.40307756       4.05033604      12.29121606        2       1.00000000       0.00000000       0.00000000       0.00000000       0.00000000       0.00000000       0.00000000
H        4.20923268       4.05033604      12.29121606        2       1.00000000       0.00000000       0.00000000       0.00000000       0.00000000       0.00000000       0.00000000
H        0.00000000       0.00000000      14.58243212        1       1.00000000       0.00000000       0.00000000       0.00000000       0.00000000       0.00000000       0.00000000
H        2.80615512       0.00000000      14.58243212        1       1.00000000       0.00000000       0.00000000       0.00000000       0.00000000       0.00000000       0.00000000
H        1.40307756       2.43020162      14.58243212        1       1.00000000       0.00000000       0.00000000       0.00000000       0.00000000       0.00000000       0.00000000
H        4.20923268       2.43020162      14.58243212        1       1.00000000       0.00000000       0.00000000       0.00000000       0.00000000       0.00000000       0.00000000
H        4.20923406       0.79346975      16.80071489        0       1.00000000      -0.00000443       0.00000032      -0.00000536       0.00000072       0.00000380       0.00000059
H        1.40307769       0.81922315      16.83185070        0       1.00000000       0.00000253      -0.00000070       0.00001010       0.00000987       0.00000036      -0.00000876
H        0.00000132      -0.00000078       7.77172246        0       1.00000000       0.00000064       0.00000049       0.00000146       0.00000182       0.00000475       0.00000828
H        4.20922353       2.42881802      19.01468342        0       1.00000000      -0.00000062      -0.00000832       0.00000426       0.00000531       0.00000343      -0.00000458
H        2.80615744      -0.00000430       7.77172788        0       1.00000000       0.00000044       0.00000098      -0.00000229       0.00000221       0.00001984      -0.00000412
H        2.79878831       3.24443321      16.79600011        0       1.00000000      -0.00000046      -0.00000566       0.00000205       0.00000196       0.00000840       0.00000903
H        1.40308058       2.43020033       7.77172560        0       1.00000000      -0.00000576      -0.00000856      -0.00000567      -0.00000622      -0.00001432       0.00000655
H        0.00736218       3.24443235      16.79600262        0       1.00000000      -0.00000491       0.00000062      -0.00000671      -0.00001484      -0.00000613       0.00000421
H        4.20923591       2.43019686       7.77172847        0       1.00000000      -0.00000468      -0.00000026      -0.00000499      -0.00000401      -0.00000279      -0.00000699
21
Lattice="5.612310241546866 0.0 0.0 0.0 4.860403243099165 0.0 0.0 0.0 24.582432123328676" Properties=species:S:1:pos:R:3:tags:I:1:masses:R:1:momenta:R:3:forces:R:3 KEmax=27.14459056223422 iter=95807 volume=670.5618179858607 ns_energy=-14.087860257450606 last_walked_iter_clone=95801 energy=-14.08786025767585 stress="0.021478134420575043 -1.6749372627609144e-08 -1.0665562931181091e-07 -1.6749372627609144e-08 0.021537855829615257 -3.738677875996233e-08 -1.0665562931181091e-07 -3.738677875996233e-08 0.010791093354942119" pbc="T T F"
H        1.40307756       0.81006721      10.00000000        3       1.00000000       0.00000000       0.00000000       0.00000000       0.00000000       0.00000000       0.00000000
H        4.20923268       0.81006721      10.00000000        3       1.00000000       0.00000000       0.00000000       0.00000000       0.00000000       0.00000000       0.00000000
H        0.00000000       3.24026883      10.00000000        3       1.00000000       0.00000000       0.00000000       0.00000000       0.00000000       0.00000000       0.00000000
H        2.80615512       3.24026883      10.00000000        3       1.00000000       0.00000000       0.00000000       0.00000000       0.00000000       0.00000000       0.00000000
H        0.00000000       1.62013441      12.29121606        2       1.00000000       0.00000000       0.00000000       0.00000000       0.00000000       0.00000000       0.00000000
H        2.80615512       1.62013441      12.29121606        2       1.00000000       0.00000000       0.00000000       0.00000000       0.00000000       0.00000000       0.00000000
H        1.40307756       4.05033604      12.29121606        2       1.00000000       0.00000000       0.00000000       0.00000000       0.00000000       0.00000000       0.00000000
H        4.20923268       4.05033604      12.29121606        2       1.00000000       0.00000000       0.00000000       0.00000000       0.00000000       0.00000000       0.00000000
H        0.00000000       0.00000000      14.58243212        1       1.00000000       0.00000000       0.00000000       0.00000000       0.00000000       0.00000000       0.00000000
H        2.80615512       0.00000000      14.58243212        1       1.00000000       0.00000000       0.00000000       0.00000000       0.00000000       0.00000000       0.00000000
H        1.40307756       2.43020162      14.58243212        1       1.00000000       0.00000000       0.00000000       0.00000000       0.00000000       0.00000000       0.00000000
H        4.20923268       2.43020162      14.58243212        1       1.00000000       0.00000000       0.00000000       0.00000000       0.00000000       0.00000000       0.00000000
H        4.20923007       0.79347041      16.80071227        0       1.00000000       0.00000302       0.00000319       0.00000520       0.00000072       0.00000380       0.00000059
H        1.40307466       0.81922359      16.83184358        0       1.00000000       0.00000119       0.00000716      -0.00000327       0.00000987       0.00000036      -0.00000876
H        5.61231109       4.86040766       7.77172573        0       1.00000000       0.00000417      -0.00000209      -0.00000828       0.00000182       0.00000475       0.00000828
H        4.20922831       2.42879715      19.01468476        0       1.00000000       0.00001219       0.00000339       0.00000133       0.00000531       0.00000343      -0.00000458
H        2.80615273       0.00000082       7.77173311        0       1.00000000       0.00000164      -0.00000462      -0.00000421       0.00000221       0.00001984      -0.00000412
H        2.79879026       3.24442858      16.79599975        0       1.00000000      -0.00000122      -0.00000153      -0.00000253       0.00000196       0.00000840       0.00000903
H        1.40307918       2.43020192       7.77172814        0       1.00000000       0.00000424       0.00000567       0.00000167      -0.00000622      -0.00001432       0.00000655
H        0.00736100       3.24442845      16.79599946        0       1.00000000      -0.00001060       0.00000319       0.00000197      -0.00001484      -0.00000613       0.00000421
H        4.20923396       2.43020325       7.77172424        0       1.00000000      -0.00000307      -0.00000013       0.00000476      -0.00000401      -0.00000279      -0.00000699
21
Lattice="5.612310241546866 0.0 0.0 0.0 4.860403243099165 0.0 0.0 0.0 24.582432123328676" Properties=species:S:1:pos:R:3:tags:I:1:masses:R:1:momenta:R:3:forces:R:3 KEmax=27.14459056223422 iter=95807 volume=670.5618179858607 ns_energy=-14.087860257449522 last_walked_iter_clone=95586 energy=-14.08786025767585 stress="0.021478134420575043 -1.6749372627609144e-08 -1.0665562931181091e-07 -1.6749372627609144e-08 0.021537855829615257 -3.738677875996233e-08 -1.0665562931181091e-07 -3.738677875996233e-08 0.010791093354942119" pbc="T T F"
H        1.40307756       0.81006721      10.00000000        3       1.00000000       0.00000000       0.00000000       0.00000000       0.00000000       0.00000000       0.00000000
H        4.20923268       0.81006721      10.00000000        3       1.00000000       0.00000000       0.00000000       0.00000000       0.00000000       0.00000000       0.00000000
H        0.00000000       3.24026883      10.00000000        3       1.00000000       0.00000000       0.00000000       0.00000000       0.00000000       0.00000000       0.00000000
H        2.80615512       3.24026883      10.00000000        3       1.00000000       0.00000000       0.00000000       0.00000000       0.00000000       0.00000000       0.00000000
H        0.00000000       1.62013441      12.29121606        2       1.00000000       0.00000000       0.00000000       0.00000000       0.00000000       0.00000000       0.00000000
H        2.80615512       1.62013441      12.29121606        2       1.00000000       0.00000000       0.00000000       0.00000000       0.00000000       0.00000000       0.00000000
H        1.40307756       4.05033604      12.29121606        2       1.00000000       0.00000000       0.00000000       0.00000000       0.00000000       0.00000000       0.00000000
H        4.20923268       4.05033604      12.29121606        2       1.00000000       0.00000000       0.00000000       0.00000000       0.00000000       0.00000000       0.00000000
H        0.00000000       0.00000000      14.58243212        1       1.00000000       0.00000000       0.00000000       0.00000000       0.00000000       0.00000000       0.00000000
H        2.80615512       0.00000000      14.58243212        1       1.00000000       0.00000000       0.00000000       0.00000000       0.00000000       0.00000000       0.00000000
H        1.40307756       2.43020162      14.58243212        1       1.00000000       0.00000000       0.00000000       0.00000000       0.00000000       0.00000000       0.00000000
H        4.20923268       2.43020162      14.58243212        1       1.00000000       0.00000000       0.00000000       0.00000000       0.00000000       0.00000000       0.00000000
H        4.20923456       0.79347074      16.80071756        0       1.00000000       0.00000030      -0.00000242      -0.00000063       0.00000072       0.00000380       0.00000059
H        1.40307599       0.81921942      16.83184380        0       1.00000000       0.00000569       0.00000489      -0.00000145       0.00000987       0.00000036      -0.00000876
H        5.61231000       4.86040344       7.77172583        0       1.00000000       0.00000614       0.00000954      -0.00000060       0.00000182       0.00000475       0.00000828
H        4.20923093       2.42879724      19.01468580        0       1.00000000      -0.00000087      -0.00000238       0.00000007       0.00000531       0.00000343      -0.00000458
H        2.80615329       4.86040573       7.77172668        0       1.00000000       0.00000116      -0.00000756       0.00000416       0.00000221       0.00001984      -0.00000412
H        2.79878711       3.24442817      16.79600199        0       1.00000000      -0.00000048      -0.00000668      -0.00000317       0.00000196       0.00000840       0.00000903