21
Lattice="5.612310241546866 0.0 0.0 0.0 4.860403243099165 0.0 0.0 0.0 24.582432123328676" Properties=species:S:1:pos:R:3:tags:I:1:masses:R:1:momenta:R:3:forces:R:3 KEmax=27.14459056223422 iter=63692 volume=670.5618179858607 ns_energy=-14.087858539740346 last_walked_iter_clone=63639 energy=-14.087859541724736 stress="0.02147855546709649 6.539476184701707e-07 -1.1422603014272184e-06 6.539476184701707e-07 0.02154102940798211 -3.8109974053580775e-06 -1.1422603014272184e-06 -3.8109974053580775e-06 0.010798733193906064" pbc="T T F"
H        1.40307756       0.81006721      10.00000000        3       1.00000000       0.00000000       0.00000000       0.00000000       0.00000000       0.00000000       0.00000000
H        4.20923268       0.81006721      10.00000000        3       1.00000000       0.00000000       0.00000000       0.00000000       0.00000000       0.00000000       0.00000000
H        0.00000000       3.24026883      10.00000000        3       1.00000000       0.00000000       0.00000000       0.00000000       0.00000000       0.00000000       0.00000000
H        2.80615512       3.24026883      10.00000000        3       1.00000000       0.00000000       0.00000000       0.00000000       0.00000000       0.00000000       0.00000000
H        0.00000000       1.62013441      12.29121606        2       1.00000000       0.00000000       0.00000000       0.00000000       0.00000000       0.00000000       0.00000000
H        2.80615512       1.62013441      12.29121606        2       1.00000000       0.00000000       0.00000000       0.00000000       0.00000000       0.00000000       0.00000000
H        1.40307756       4.05033604      12.29121606        2       1.00000000       0.00000000       0.00000000       0.00000000       0.00000000       0.00000000       0.00000000
H        4.20923268       4.05033604      12.29121606        2       1.00000000       0.00000000       0.00000000       0.00000000       0.00000000       0.00000000       0.00000000
H        0.00000000       0.00000000      14.58243212        1       1.00000000       0.00000000       0.00000000       0.00000000       0.00000000       0.00000000       0.00000000
H        2.80615512       0.00000000      14.58243212        1       1.00000000       0.00000000       0.00000000       0.00000000       0.00000000       0.00000000       0.00000000
H        1.40307756       2.43020162      14.58243212        1       1.00000000       0.00000000       0.00000000       0.00000000       0.00000000       0.00000000       0.00000000
H        4.20923268       2.43020162      14.58243212        1       1.00000000       0.00000000       0.00000000       0.00000000       0.00000000       0.00000000       0.00000000
H        4.20926047       0.79347700      16.80059627        0       1.00000000      -0.00015792       0.00019974      -0.00002877      -0.00009983       0.00000922      -0.00022277
H        1.40296518       0.81945322      16.83189726        0       1.00000000      -0.00002783      -0.00032328       0.00005300      -0.00026776       0.00016897      -0.00008350
H       -0.00001631      -0.00015712       7.77211214        0       1.00000000      -0.00015960      -0.00003859      -0.00007709      -0.00050177       0.00066492      -0.00008060
H        4.20987649       2.42902049      19.01477149        0       1.00000000       0.00006213      -0.00017182       0.00033582       0.00013479       0.00011222      -0.00019319
H        2.80632827       0.00022909       7.77172884        0       1.00000000      -0.00029473       0.00059645      -0.00021200       0.00107969       0.00060285       0.00045209
H        2.79881648       3.24459877      16.79597395        0       1.00000000       0.00026053       0.00000781       0.00004564       0.00069351      -0.00024660       0.00005114
H        1.40310380       2.43044899       7.77179887        0       1.00000000      -0.00000495      -0.00077471      -0.00015374      -0.00095091      -0.00064656       0.00042950
H        0.00746235       3.24472128      16.79594207        0       1.00000000       0.00008159      -0.00033022      -0.00029460      -0.00042135       0.00004837       0.00049761
H        4.20936099       2.43032168       7.77160651        0       1.00000000       0.00017783       0.00005574      -0.00004693       0.00038477      -0.00093958       0.00012244
21
Lattice="5.612310241546866 0.0 0.0 0.0 4.860403243099165 0.0 0.0 0.0 24.582432123328676" Properties=species:S:1:pos:R:3:tags:I:1:masses:R:1:momenta:R:3:forces:R:3 KEmax=27.14459056223422 iter=63692 volume=670.5618179858607 ns_energy=-14.087858488503214 last_walked_iter_clone=63599 energy=-14.087859541724736 stress="0.02147855546709649 6.539476184701707e-07 -1.1422603014272184e-06 6.539476184701707e-07 0.02154102940798211 -3.8109974053580775e-06 -1.1422603014272184e-06 -3.8109974053580775e-06 0.010798733193906064" pbc="T T F"
H        1.40307756       0.81006721      10.00000000        3       1.00000000       0.00000000       0.00000000       0.00000000       0.00000000       0.00000000       0.00000000
H        4.20923268       0.81006721      10.00000000        3       1.00000000       0.00000000       0.00000000       0.00000000       0.00000000       0.00000000       0.00000000
H        0.00000000       3.24026883      10.00000000        3       1.00000000       0.00000000       0.00000000       0.00000000       0.00000000       0.00000000       0.00000000
H        2.80615512       3.24026883      10.00000000        3       1.00000000       0.00000000       0.00000000       0.00000000       0.00000000       0.00000000       0.00000000
H        0.00000000       1.62013441      12.29121606        2       1.00000000       0.00000000       0.00000000       0.00000000       0.00000000       0.00000000       0.00000000
H        2.80615512       1.62013441      12.29121606        2       1.00000000       0.00000000       0.00000000       0.00000000       0.00000000       0.00000000       0.00000000
H        1.40307756       4.05033604      12.29121606        2       1.00000000       0.00000000       0.00000000       0.00000000       0.00000000       0.00000000       0.00000000
H        4.20923268       4.05033604      12.29121606        2       1.00000000       0.00000000       0.00000000       0.00000000       0.00000000       0.00000000       0.00000000
H        0.00000000       0.00000000      14.58243212        1       1.00000000       0.00000000       0.00000000       0.00000000       0.00000000       0.00000000       0.00000000
H        2.80615512       0.00000000      14.58243212        1       1.00000000       0.00000000       0.00000000       0.00000000       0.00000000       0.00000000       0.00000000
H        1.40307756       2.43020162      14.58243212        1       1.00000000       0.00000000       0.00000000       0.00000000       0.00000000       0.00000000       0.00000000
H        4.20923268       2.43020162      14.58243212        1       1.00000000       0.00000000       0.00000000       0.00000000       0.00000000       0.00000000       0.00000000
H        4.20932328       0.79310345      16.80075158        0       1.00000000       0.00014160      -0.00026944      -0.00027219      -0.00009983       0.00000922      -0.00022277
H        1.40329355       0.81900063      16.83219377        0       1.00000000       0.00007691       0.00014998       0.00027061      -0.00026776       0.00016897      -0.00008350
H        5.61205952       4.86016756       7.77140043        0       1.00000000       0.00027165      -0.00008998      -0.00014165      -0.00050177       0.00066492      -0.00008060
H        4.20949230       2.42857533      19.01443344        0       1.00000000       0.00038567       0.00018652       0.00030400       0.00013479       0.00011222      -0.00019319
H        2.80604073       4.86012623       7.77181411        0       1.00000000      -0.00004136       0.00006278       0.00009301       0.00107969       0.00060285       0.00045209
H        2.79912410       3.24411748      16.79603904        0       1.00000000       0.00033645      -0.00023117       0.00039426       0.00069351      -0.00024660       0.00005114
H        1.40269897       2.43000591       7.77189844        0       1.00000000      -0.00000179       0.00001522       0.00034066      -0.00095091      -0.00064656       0.00042950
H        0.00774261       3.24417256      16.79601741        0       1.00000000      -0.00038653      -0.00022062      -0.00021703      -0.00042135       0.00004837       0.00049761
H        4.20925405       2.42987948       7.77194601        0       1.00000000      -0.00009470       0.00011352      -0.00005032       0.00038477      -0.00093958       0.00012244
21
Lattice="5.612310241546866 0.0 0.0 0.0 4.860403243099165 0.0 0.0 0.0 24.582432123328676" Properties=species:S:1:pos:R:3:tags:I:1:masses:R:1:momenta:R:3:forces:R:3 KEmax=27.14459056223422 iter=63692 volume=670.5618179858607 ns_energy=-14.087858554622088 last_walked_iter_clone=63651 energy=-14.087859541724736 stress="0.02147855546709649 6.539476184701707e-07 -1.1422603014272184e-06 6.539476184701707e-07 0.02154102940798211 -3.8109974053580775e-06 -1.1422603014272184e-06 -3.8109974053580775e-06 0.010798733193906064" pbc="T T F"
H        1.40307756       0.81006721      10.00000000        3       1.00000000       0.00000000       0.00000000       0.00000000       0.00000000       0.00000000       0.00000000
H        4.20923268       0.81006721      10.00000000        3       1.00000000       0.00000000       0.00000000       0.00000000       0.00000000       0.00000000       0.00000000
H        0.00000000       3.24026883      10.00000000        3       1.00000000       0.00000000       0.00000000       0.00000000       0.00000000       0.00000000       0.00000000
H        2.80615512       3.24026883      10.00000000        3       1.00000000       0.00000000       0.00000000       0.00000000       0.00000000       0.00000000       0.00000000
H        0.00000000       1.62013441      12.29121606        2       1.00000000       0.00000000       0.00000000       0.00000000       0.00000000       0.00000000       0.00000000
H        2.80615512       1.62013441      12.29121606        2       1.00000000       0.00000000       0.00000000       0.00000000       0.00000000       0.00000000       0.00000000
H        1.40307756       4.05033604      12.29121606        2       1.00000000       0.00000000       0.00000000       0.00000000       0.00000000       0.00000000       0.00000000
H        4.20923268       4.05033604      12.29121606        2       1.00000000       0.00000000       0.00000000       0.00000000       0.00000000       0.00000000       0.00000000
H        0.00000000       0.00000000      14.58243212        1       1.00000000       0.00000000       0.00000000       0.00000000       0.00000000       0.00000000       0.00000000
H        2.80615512       0.00000000      14.58243212        1       1.00000000       0.00000000       0.00000000       0.00000000       0.00000000       0.00000000       0.00000000
H        1.40307756       2.43020162      14.58243212        1       1.00000000       0.00000000       0.00000000       0.00000000       0.00000000       0.00000000       0.00000000
H        4.20923268       2.43020162      14.58243212        1       1.00000000       0.00000000       0.00000000       0.00000000       0.00000000       0.00000000       0.00000000
H        4.20920939       0.79354712      16.80084020        0       1.00000000      -0.00032111      -0.00012795       0.00029814      -0.00009983       0.00000922      -0.00022277
H        1.40322512       0.81942414      16.83174482        0       1.00000000      -0.00024232       0.00017346      -0.00002640      -0.00026776       0.00016897      -0.00008350
H        5.61227966      -0.00009013       7.77170948        0       1.00000000       0.00017648      -0.00032845       0.00026772      -0.00050177       0.00066492      -0.00008060
H        4.20902904       2.42992861      19.01506576        0       1.00000000      -0.00026552      -0.00004551       0.00053700       0.00013479       0.00011222      -0.00019319
H        2.80602880      -0.00013536       7.77202527        0       1.00000000      -0.00006316       0.00007009      -0.00002510       0.00107969       0.00060285       0.00045209
H        2.79874192       3.24447898      16.79599522        0       1.00000000      -0.00026258       0.00004616      -0.00005321       0.00069351      -0.00024660       0.00005114
H        1.40323302       2.43013053       7.77167581        0       1.00000000       0.00030605      -0.00005016      -0.00026302      -0.00095091      -0.00064656       0.00042950
H        0.00712572       3.24450656      16.79623289        0       1.00000000      -0.00007301       0.00003007       0.00011252      -0.00042135       0.00004837       0.00049761
H        4.20912082       2.43021300       7.77143545        0       1.00000000      -0.00020452      -0.00028582      -0.00012719       0.00038477      -0.00093958       0.00012244
21
Lattice="5.612310241546866 0.0 0.0 0.0 4.860403243099165 0.0 0.0 0.0 24.582432123328676" Properties=species:S:1:pos:R:3:tags:I:1:masses:R:1:momenta:R:3:forces:R:3 KEmax=27.14459056223422 iter=63692 volume=670.5618179858607 ns_energy=-14.087858461384396 last_walked_iter_clone=63595 energy=-14.087859541724736 stress="0.02147855546709649 6.539476184701707e-07 -1.1422603014272184e-06 6.539476184701707e-07 0.02154102940798211 -3.8109974053580775e-06 -1.1422603014272184e-06 -3.8109974053580775e-06 0.010798733193906064" pbc="T T F"
H        1.40307756       0.81006721      10.00000000        3       1.00000000       0.00000000       0.00000000       0.00000000       0.00000000       0.00000000       0.00000000
H        4.20923268       0.81006721      10.00000000        3       1.00000000       0.00000000       0.00000000       0.00000000       0.00000000       0.00000000       0.00000000
H        0.00000000       3.24026883      10.00000000        3       1.00000000       0.00000000       0.00000000       0.00000000       0.00000000       0.00000000       0.00000000
H        2.80615512       3.24026883      10.00000000        3       1.00000000       0.00000000       0.00000000       0.00000000       0.00000000       0.00000000       0.00000000
H        0.00000000       1.62013441      12.29121606        2       1.00000000       0.00000000       0.00000000       0.00000000       0.00000000       0.00000000       0.00000000
H        2.80615512       1.62013441      12.29121606        2       1.00000000       0.00000000       0.00000000       0.00000000       0.00000000       0.00000000       0.00000000
H        1.40307756       4.05033604      12.29121606        2       1.00000000       0.00000000       0.00000000       0.00000000       0.00000000       0.00000000       0.00000000
H        4.20923268       4.05033604      12.29121606        2       1.00000000       0.00000000       0.00000000       0.00000000       0.00000000       0.00000000       0.00000000
H        0.00000000       0.00000000      14.58243212        1       1.00000000       0.00000000       0.00000000       0.00000000       0.00000000       0.00000000       0.00000000
H        2.80615512       0.00000000      14.58243212        1       1.00000000       0.00000000       0.00000000       0.00000000       0.00000000       0.00000000       0.00000000
H        1.40307756       2.43020162      14.58243212        1       1.00000000       0.00000000       0.00000000       0.00000000       0.00000000       0.00000000       0.00000000
H        4.20923268       2.43020162      14.58243212        1       1.00000000       0.00000000       0.00000000       0.00000000       0.00000000       0.00000000       0.00000000
H        4.20916514       0.79373100      16.80050050        0       1.00000000       0.00005721       0.00013350      -0.00025640      -0.00009983       0.00000922      -0.00022277
H        1.40333259       0.81918801      16.83194541        0       1.00000000       0.00024109      -0.00010330       0.00032662      -0.00026776       0.00016897      -0.00008350
H       -0.00000814       0.00018169       7.77168180        0       1.00000000      -0.00045080      -0.00004956      -0.00041441      -0.00050177       0.00066492      -0.00008060
H        4.20962513       2.42916031      19.01452828        0       1.00000000      -0.00040460       0.00011556      -0.00008197       0.00013479       0.00011222      -0.00019319
H        2.80590915      -0.00021261       7.77151724        0       1.00000000       0.00005898       0.00031149      -0.00007549       0.00107969       0.00060285       0.00045209
H        2.79911323       3.24451496      16.79587049        0       1.00000000       0.00004004      -0.00001804       0.00007523       0.00069351      -0.00024660       0.00005114
H        1.40315177       2.43012646       7.77195209        0       1.00000000       0.00021884      -0.00047803      -0.00041651      -0.00095091      -0.00064656       0.00042950
H        0.00760086       3.24463969      16.79582345        0       1.00000000       0.00017578       0.00036913      -0.00026170      -0.00042135       0.00004837       0.00049761
H        4.20934519       2.43029232       7.77179209        0       1.00000000      -0.00027379      -0.00011865      -0.00034104       0.00038477      -0.00093958       0.00012244
21
Lattice="5.612310241546866 0.0 0.0 0.0 4.860403243099165 0.0 0.0 0.0 24.582432123328676" Properties=species:S:1:pos:R:3:tags:I:1:masses:R:1:momenta:R:3:forces:R:3 KEmax=27.14459056223422 iter=63692 volume=670.5618179858607 ns_energy=-14.087858471848023 last_walked_iter_clone=63662 energy=-14.087859541724736 stress="0.02147855546709649 6.539476184701707e-07 -1.1422603014272184e-06 6.539476184701707e-07 0.02154102940798211 -3.8109974053580775e-06 -1.1422603014272184e-06 -3.8109974053580775e-06 0.010798733193906064" pbc="T T F"
H        1.40307756       0.81006721      10.00000000        3       1.00000000       0.00000000       0.00000000       0.00000000       0.00000000       0.00000000       0.00000000
H        4.20923268       0.81006721      10.00000000        3       1.00000000       0.00000000       0.00000000       0.00000000       0.00000000       0.00000000       0.00000000
H        0.00000000       3.24026883      10.00000000        3       1.00000000       0.00000000       0.00000000       0.00000000       0.00000000       0.00000000       0.00000000
H        2.80615512       3.24026883      10.00000000        3       1.00000000       0.00000000       0.00000000       0.00000000       0.00000000       0.00000000       0.00000000
H        0.00000000       1.62013441      12.29121606        2       1.00000000       0.00000000       0.00000000       0.00000000       0.00000000       0.00000000       0.00000000
H        2.80615512       1.62013441      12.29121606        2       1.00000000       0.00000000       0.00000000       0.00000000       0.00000000       0.00000000       0.00000000
H        1.40307756       4.05033604      12.29121606        2       1.00000000       0.00000000       0.00000000       0.00000000       0.00000000       0.00000000       0.00000000
H        4.20923268       4.05033604      12.29121606        2       1.00000000       0.00000000       0.00000000       0.00000000       0.00000000       0.00000000       0.00000000
H        0.00000000       0.00000000      14.58243212        1       1.00000000       0.00000000       0.00000000       0.00000000       0.00000000       0.00000000       0.00000000
H        2.80615512       0.00000000      14.58243212        1       1.00000000       0.00000000       0.00000000       0.00000000       0.00000000       0.00000000       0.00000000
H        1.40307756       2.43020162      14.58243212        1       1.00000000       0.00000000       0.00000000       0.00000000       0.00000000       0.00000000       0.00000000
H        4.20923268       2.43020162      14.58243212        1       1.00000000       0.00000000       0.00000000       0.00000000       0.00000000       0.00000000       0.00000000
H        4.20896566       0.79365956      16.80106026        0       1.00000000       0.00032510       0.00004777      -0.00018619      -0.00009983       0.00000922      -0.00022277
H        1.40290698       0.81902818      16.83160544        0       1.00000000       0.00002981      -0.00026045       0.00017581      -0.00026776       0.00016897      -0.00008350
H        5.61241928       4.86041848       7.77186129        0       1.00000000       0.00037181      -0.00042188      -0.00039202      -0.00050177       0.00066492      -0.00008060
H        4.20862497       2.42952286      19.01468647        0       1.00000000       0.00019920      -0.00029992      -0.00012229       0.00013479       0.00011222      -0.00019319
H        2.80625500       4.86034940       7.77199978        0       1.00000000       0.00038629       0.00038417      -0.00022023       0.00107969       0.00060285       0.00045209
H        2.79865518       3.24459410      16.79577955        0       1.00000000       0.00013066       0.00004113       0.00019096       0.00069351      -0.00024660       0.00005114
H        1.40295152       2.43034313       7.77157829        0       1.00000000       0.00008247       0.00014725      -0.00026374      -0.00095091      -0.00064656       0.00042950
H        0.00726152       3.24443697      16.79589061        0       1.00000000      -0.00015605       0.00022461       0.00039852      -0.00042135       0.00004837       0.00049761
H        4.20924078       2.43031796       7.77172030        0       1.00000000      -0.00058735       0.00015753      -0.00006145       0.00038477      -0.00093958       0.00012244
21
Lattice="5.612310241546866 0.0 0.0 0.0 4.860403243099165 0.0 0.0 0.0 24.582432123328676" Properties=species:S:1:pos:R:3:tags:I:1:masses:R:1:momenta:R:3:forces:R:3 KEmax=27.14459056223422 iter=63692 volume=670.5618179858607 ns_energy=-14.087858516475245 last_walked_iter_clone=63671 energy=-14.087859541724736 stress="0.02147855546709649 6.539476184701707e-07 -1.1422603014272184e-06 6.539476184701707e-07 0.02154102940798211 -3.8109974053580775e-06 -1.1422603014272184e-06 -3.8109974053580775e-06 0.010798733193906064" pbc="T T F"
H        1.40307756       0.81006721      10.00000000        3       1.00000000       0.00000000       0.00000000       0.00000000       0.00000000       0.00000000       0.00000000
H        4.20923268       0.81006721      10.00000000        3       1.00000000       0.00000000       0.00000000       0.00000000       0.00000000       0.00000000       0.00000000
H        0.00000000       3.24026883      10.00000000        3       1.00000000       0.00000000       0.00000000       0.00000000       0.00000000       0.00000000       0.00000000
H        2.80615512       3.24026883      10.00000000        3       1.00000000       0.00000000       0.00000000       0.00000000       0.00000000       0.00000000       0.00000000
H        0.00000000       1.62013441      12.29121606        2       1.00000000       0.00000000       0.00000000       0.00000000       0.00000000       0.00000000       0.00000000
H        2.80615512       1.62013441      12.29121606        2       1.00000000       0.00000000       0.00000000       0.00000000       0.00000000       0.00000000       0.00000000
H        1.40307756       4.05033604      12.29121606        2       1.00000000       0.00000000       0.00000000       0.00000000       0.00000000       0.00000000       0.00000000
H        4.20923268       4.05033604      12.29121606        2       1.00000000       0.00000000       0.00000000       0.00000000       0.00000000       0.00000000       0.00000000
H        0.00000000       0.00000000      14.58243212        1       1.00000000       0.00000000       0.00000000       0.00000000       0.00000000       0.00000000       0.00000000
H        2.80615512       0.00000000      14.58243212        1       1.00000000       0.00000000       0.00000000       0.00000000       0.00000000       0.00000000       0.00000000
H        1.40307756       2.43020162      14.58243212        1       1.00000000       0.00000000       0.00000000       0.00000000       0.00000000       0.00000000       0.00000000
H        4.20923268       2.43020162      14.58243212        1       1.00000000       0.00000000       0.00000000       0.00000000       0.00000000       0.00000000       0.00000000
H        4.20919538       0.79358408      16.80089161        0       1.00000000       0.00014505      -0.00016184       0.00057220      -0.00009983       0.00000922      -0.00022277
H        1.40309079       0.81905089      16.83220518        0       1.00000000       0.00007219      -0.00015894       0.00020779      -0.00026776       0.00016897      -0.00008350
H        5.61209696       0.00006084       7.77168985        0       1.00000000      -0.00045498      -0.00012565      -0.00011086      -0.00050177       0.00066492      -0.00008060
H        4.20940538       2.42920505      19.01483681        0       1.00000000       0.00032905      -0.00033938       0.00007127       0.00013479       0.00011222      -0.00019319
H        2.80579548       4.86054263       7.77208278        0       1.00000000       0.00029873       0.00021216       0.00017940       0.00107969       0.00060285       0.00045209
H        2.79864377       3.24426551      16.79604622        0       1.00000000       0.00027033      -0.00038336       0.00022675       0.00069351      -0.00024660       0.00005114
H        1.40302491       2.43030931       7.77164988        0       1.00000000       0.00001939       0.00025992       0.00038622      -0.00095091      -0.00064656       0.00042950
H        0.00712776       3.24419492      16.79597721        0       1.00000000       0.00010792      -0.00039296      -0.00000914      -0.00042135       0.00004837       0.00049761
H        4.20922077       2.43016608       7.77183262        0       1.00000000       0.00015972      -0.00029398       0.00000047       0.00038477      -0.00093958       0.00012244
21
Lattice="5.612310241546866 0.0 0.0 0.0 4.860403243099165 0.0 0.0 0.0 24.582432123328676" Properties=species:S:1:pos:R:3:tags:I:1:masses:R:1:momenta:R:3:forces:R:3 KEmax=27.14459056223422 iter=63692 volume=670.5618179858607 ns_energy=-14.087858487312188 last_walked_iter_clone=63665 energy=-14.087859541724736 stress="0.02147855546709649 6.539476184701707e-07 -1.1422603014272184e-06 6.539476184701707e-07 0.02154102940798211 -3.8109974053580775e-06 -1.1422603014272184e-06 -3.8109974053580775e-06 0.010798733193906064" pbc="T T F"
H        1.40307756       0.81006721      10.00000000        3       1.00000000       0.00000000       0.00000000       0.00000000       0.00000000       0.00000000       0.00000000
H        4.20923268       0.81006721      10.00000000        3       1.00000000       0.00000000       0.00000000       0.00000000       0.00000000       0.00000000       0.00000000
H        0.00000000       3.24026883      10.00000000        3       1.00000000       0.00000000       0.00000000       0.00000000       0.00000000       0.00000000       0.00000000
H        2.80615512       3.24026883      10.00000000        3       1.00000000       0.00000000       0.00000000       0.00000000       0.00000000       0.00000000       0.00000000
H        0.00000000       1.62013441      12.29121606        2       1.00000000       0.00000000       0.00000000       0.00000000       0.00000000       0.00000000       0.00000000
H        2.80615512       1.62013441      12.29121606        2       1.00000000       0.00000000       0.00000000       0.00000000       0.00000000       0.00000000       0.00000000
H        1.40307756       4.05033604      12.29121606        2       1.00000000       0.00000000       0.00000000       0.00000000       0.00000000       0.00000000       0.00000000
H        4.20923268       4.05033604      12.29121606        2       1.00000000       0.00000000       0.00000000       0.00000000       0.00000000       0.00000000       0.00000000
H        0.00000000       0.00000000      14.58243212        1       1.00000000       0.00000000       0.00000000       0.00000000       0.00000000       0.00000000       0.00000000
H        2.80615512       0.00000000      14.58243212        1       1.00000000       0.00000000       0.00000000       0.00000000       0.00000000       0.00000000       0.00000000
H        1.40307756       2.43020162      14.58243212        1       1.00000000       0.00000000       0.00000000       0.00000000       0.00000000       0.00000000       0.00000000
H        4.20923268       2.43020162      14.58243212        1       1.00000000       0.00000000       0.00000000       0.00000000       0.00000000       0.00000000       0.00000000
H        4.20941713       0.79344543      16.80072590        0       1.00000000       0.00031970      -0.00016850       0.00004753      -0.00009983       0.00000922      -0.00022277
H        1.40289575       0.81904594      16.83196305        0       1.00000000       0.00010563      -0.00021853       0.00046053      -0.00026776       0.00016897      -0.00008350
H        0.00021746      -0.00051791       7.77181038        0       1.00000000      -0.00046710       0.00026181      -0.00039062      -0.00050177       0.00066492      -0.00008060
H        4.20939075       2.42924027      19.01484915        0       1.00000000       0.00017890      -0.00028836       0.00018114       0.00013479       0.00011222      -0.00019319
H        2.80617549       4.86007505       7.77179223        0       1.00000000       0.00004185      -0.00014555       0.00040323       0.00107969       0.00060285       0.00045209
H        2.79901803       3.24453427      16.79602302        0       1.00000000       0.00041282       0.00019557       0.00010400       0.00069351      -0.00024660       0.00005114