21
Lattice="5.612310241546866 0.0 0.0 0.0 4.860403243099165 0.0 0.0 0.0 24.582432123328676" Properties=species:S:1:pos:R:3:tags:I:1:masses:R:1:momenta:R:3:forces:R:3 KEmax=27.14459056223422 iter=119999 volume=670.5618179858607 ns_energy=-14.087860257929965 last_walked_iter_clone=119892 energy=-14.08786025792893 stress="0.021478147637998785 9.208013578429538e-09 2.4416246484681342e-08 9.208013578429538e-09 0.021537862397040943 2.220565310161879e-08 2.4416246484681342e-08 2.220565310161879e-08 0.01079108859220793" pbc="T T F"
H        1.40307756       0.81006721      10.00000000        3       1.00000000       0.00000000       0.00000000       0.00000000       0.00000000       0.00000000       0.00000000
H        4.20923268       0.81006721      10.00000000        3       1.00000000       0.00000000       0.00000000       0.00000000       0.00000000       0.00000000       0.00000000
H        0.00000000       3.24026883      10.00000000        3       1.00000000       0.00000000       0.00000000       0.00000000       0.00000000       0.00000000       0.00000000
H        2.80615512       3.24026883      10.00000000        3       1.00000000       0.00000000       0.00000000       0.00000000       0.00000000       0.00000000       0.00000000
H        0.00000000       1.62013441      12.29121606        2       1.00000000       0.00000000       0.00000000       0.00000000       0.00000000       0.00000000       0.00000000
H        2.80615512       1.62013441      12.29121606        2       1.00000000       0.00000000       0.00000000       0.00000000       0.00000000       0.00000000       0.00000000
H        1.40307756       4.05033604      12.29121606        2       1.00000000       0.00000000       0.00000000       0.00000000       0.00000000       0.00000000       0.00000000
H        4.20923268       4.05033604      12.29121606        2       1.00000000       0.00000000       0.00000000       0.00000000       0.00000000       0.00000000       0.00000000
H        0.00000000       0.00000000      14.58243212        1       1.00000000       0.00000000       0.00000000       0.00000000       0.00000000       0.00000000       0.00000000
H        2.80615512       0.00000000      14.58243212        1       1.00000000       0.00000000       0.00000000       0.00000000       0.00000000       0.00000000       0.00000000
H        1.40307756       2.43020162      14.58243212        1       1.00000000       0.00000000       0.00000000       0.00000000       0.00000000       0.00000000       0.00000000
H        4.20923268       2.43020162      14.58243212        1       1.00000000       0.00000000       0.00000000       0.00000000       0.00000000       0.00000000       0.00000000
H        4.20923315       0.79347270      16.80071620        0       1.00000000       0.00000049       0.00000021      -0.00000019      -0.00000234       0.00000280       0.00000195
H        1.40307802       0.81922347      16.83184651        0       1.00000000      -0.00000066       0.00000027       0.00000071       0.00000153       0.00000674       0.00000117
H        5.61230916       4.86040307       7.77172674        0       1.00000000       0.00000042      -0.00000119       0.00000169      -0.00000016      -0.00000187       0.00000144
H        4.20923193       2.42881205      19.01468827        0       1.00000000      -0.00000035       0.00000047       0.00000041      -0.00000034      -0.00000028      -0.00000343
H        2.80615487       0.00000016       7.77172729        0       1.00000000       0.00000073      -0.00000042      -0.00000077      -0.00000142       0.00000085       0.00000348
H        2.79879182       3.24443148      16.79600022        0       1.00000000      -0.00000145      -0.00000033       0.00000090       0.00000067      -0.00000228       0.00000094
H        1.40307646       2.43020253       7.77172737        0       1.00000000      -0.00000031       0.00000084       0.00000126       0.00000204       0.00000302      -0.00000139
H        0.00736343       3.24443053      16.79599861        0       1.00000000      -0.00000079      -0.00000035      -0.00000132      -0.00000055      -0.00000676       0.00000001
H        4.20923209       2.43020220       7.77172749        0       1.00000000       0.00000226       0.00000071       0.00000002       0.00000153       0.00000050       0.00000018
21
Lattice="5.612310241546866 0.0 0.0 0.0 4.860403243099165 0.0 0.0 0.0 24.582432123328676" Properties=species:S:1:pos:R:3:tags:I:1:masses:R:1:momenta:R:3:forces:R:3 KEmax=27.14459056223422 iter=119999 volume=670.5618179858607 ns_energy=-14.087860257929856 last_walked_iter_clone=119811 energy=-14.08786025792893 stress="0.021478147637998785 9.208013578429538e-09 2.4416246484681342e-08 9.208013578429538e-09 0.021537862397040943 2.220565310161879e-08 2.4416246484681342e-08 2.220565310161879e-08 0.01079108859220793" pbc="T T F"
H        1.40307756       0.81006721      10.00000000        3       1.00000000       0.00000000       0.00000000       0.00000000       0.00000000       0.00000000       0.00000000
H        4.20923268       0.81006721      10.00000000        3       1.00000000       0.00000000       0.00000000       0.00000000       0.00000000       0.00000000       0.00000000
H        0.00000000       3.24026883      10.00000000        3       1.00000000       0.00000000       0.00000000       0.00000000       0.00000000       0.00000000       0.00000000
H        2.80615512       3.24026883      10.00000000        3       1.00000000       0.00000000       0.00000000       0.00000000       0.00000000       0.00000000       0.00000000
H        0.00000000       1.62013441      12.29121606        2       1.00000000       0.00000000       0.00000000       0.00000000       0.00000000       0.00000000       0.00000000
H        2.80615512       1.62013441      12.29121606        2       1.00000000       0.00000000       0.00000000       0.00000000       0.00000000       0.00000000       0.00000000
H        1.40307756       4.05033604      12.29121606        2       1.00000000       0.00000000       0.00000000       0.00000000       0.00000000       0.00000000       0.00000000
H        4.20923268       4.05033604      12.29121606        2       1.00000000       0.00000000       0.00000000       0.00000000       0.00000000       0.00000000       0.00000000
H        0.00000000       0.00000000      14.58243212        1       1.00000000       0.00000000       0.00000000       0.00000000       0.00000000       0.00000000       0.00000000
H        2.80615512       0.00000000      14.58243212        1       1.00000000       0.00000000       0.00000000       0.00000000       0.00000000       0.00000000       0.00000000
H        1.40307756       2.43020162      14.58243212        1       1.00000000       0.00000000       0.00000000       0.00000000       0.00000000       0.00000000       0.00000000
H        4.20923268       2.43020162      14.58243212        1       1.00000000       0.00000000       0.00000000       0.00000000       0.00000000       0.00000000       0.00000000
H        4.20923303       0.79347372      16.80071715        0       1.00000000      -0.00000042       0.00000181      -0.00000000      -0.00000234       0.00000280       0.00000195
H        1.40307869       0.81922430      16.83184699        0       1.00000000      -0.00000060       0.00000080       0.00000048       0.00000153       0.00000674       0.00000117
H       -0.00000055       4.86040273       7.77172692        0       1.00000000       0.00000048       0.00000087      -0.00000159      -0.00000016      -0.00000187       0.00000144
H        4.20923271       2.42881311      19.01468916        0       1.00000000       0.00000105      -0.00000047      -0.00000019      -0.00000034      -0.00000028      -0.00000343
H        2.80615466       4.86040295       7.77172715        0       1.00000000      -0.00000113       0.00000059      -0.00000051      -0.00000142       0.00000085       0.00000348
H        2.79879227       3.24443099      16.79599999        0       1.00000000       0.00000036      -0.00000154      -0.00000011       0.00000067      -0.00000228       0.00000094
H        1.40307713       2.43020108       7.77172680        0       1.00000000      -0.00000083      -0.00000054      -0.00000143       0.00000204       0.00000302      -0.00000139
H        0.00736296       3.24443127      16.79599972        0       1.00000000       0.00000156      -0.00000269       0.00000003      -0.00000055      -0.00000676       0.00000001
H        4.20923202       2.43020180       7.77172685        0       1.00000000      -0.00000166       0.00000024      -0.00000055       0.00000153       0.00000050       0.00000018
21
Lattice="5.612310241546866 0.0 0.0 0.0 4.860403243099165 0.0 0.0 0.0 24.582432123328676" Properties=species:S:1:pos:R:3:tags:I:1:masses:R:1:momenta:R:3:forces:R:3 KEmax=27.14459056223422 iter=119999 volume=670.5618179858607 ns_energy=-14.087860257929917 last_walked_iter_clone=119912 energy=-14.08786025792893 stress="0.021478147637998785 9.208013578429538e-09 2.4416246484681342e-08 9.208013578429538e-09 0.021537862397040943 2.220565310161879e-08 2.4416246484681342e-08 2.220565310161879e-08 0.01079108859220793" pbc="T T F"
H        1.40307756       0.81006721      10.00000000        3       1.00000000       0.00000000       0.00000000       0.00000000       0.00000000       0.00000000       0.00000000
H        4.20923268       0.81006721      10.00000000        3       1.00000000       0.00000000       0.00000000       0.00000000       0.00000000       0.00000000       0.00000000
H        0.00000000       3.24026883      10.00000000        3       1.00000000       0.00000000       0.00000000       0.00000000       0.00000000       0.00000000       0.00000000
H        2.80615512       3.24026883      10.00000000        3       1.00000000       0.00000000       0.00000000       0.00000000       0.00000000       0.00000000       0.00000000
H        0.00000000       1.62013441      12.29121606        2       1.00000000       0.00000000       0.00000000       0.00000000       0.00000000       0.00000000       0.00000000
H        2.80615512       1.62013441      12.29121606        2       1.00000000       0.00000000       0.00000000       0.00000000       0.00000000       0.00000000       0.00000000
H        1.40307756       4.05033604      12.29121606        2       1.00000000       0.00000000       0.00000000       0.00000000       0.00000000       0.00000000       0.00000000
H        4.20923268       4.05033604      12.29121606        2       1.00000000       0.00000000       0.00000000       0.00000000       0.00000000       0.00000000       0.00000000
H        0.00000000       0.00000000      14.58243212        1       1.00000000       0.00000000       0.00000000       0.00000000       0.00000000       0.00000000       0.00000000
H        2.80615512       0.00000000      14.58243212        1       1.00000000       0.00000000       0.00000000       0.00000000       0.00000000       0.00000000       0.00000000
H        1.40307756       2.43020162      14.58243212        1       1.00000000       0.00000000       0.00000000       0.00000000       0.00000000       0.00000000       0.00000000
H        4.20923268       2.43020162      14.58243212        1       1.00000000       0.00000000       0.00000000       0.00000000       0.00000000       0.00000000       0.00000000
H        4.20923267       0.79347204      16.80071691        0       1.00000000      -0.00000007       0.00000025       0.00000040      -0.00000234       0.00000280       0.00000195
H        1.40307747       0.81922385      16.83184662        0       1.00000000      -0.00000171      -0.00000051      -0.00000245       0.00000153       0.00000674       0.00000117
H        0.00000051       4.86040312       7.77172647        0       1.00000000       0.00000036       0.00000131      -0.00000075      -0.00000016      -0.00000187       0.00000144
H        4.20923470       2.42881237      19.01468932        0       1.00000000      -0.00000135      -0.00000164       0.00000035      -0.00000034      -0.00000028      -0.00000343
H        2.80615525       4.86040388       7.77172655        0       1.00000000      -0.00000037       0.00000007       0.00000075      -0.00000142       0.00000085       0.00000348
H        2.79879333       3.24443012      16.79600008        0       1.00000000      -0.00000016       0.00000068      -0.00000034       0.00000067      -0.00000228       0.00000094
H        1.40307858       2.43020113       7.77172621        0       1.00000000      -0.00000031       0.00000061       0.00000053       0.00000204       0.00000302      -0.00000139
H        0.00736447       3.24443099      16.79599917        0       1.00000000      -0.00000075      -0.00000014      -0.00000021      -0.00000055      -0.00000676       0.00000001
H        4.20923297       2.43020126       7.77172690        0       1.00000000      -0.00000063       0.00000090      -0.00000042       0.00000153       0.00000050       0.00000018
21
Lattice="5.612310241546866 0.0 0.0 0.0 4.860403243099165 0.0 0.0 0.0 24.582432123328676" Properties=species:S:1:pos:R:3:tags:I:1:masses:R:1:momenta:R:3:forces:R:3 KEmax=27.14459056223422 iter=119999 volume=670.5618179858607 ns_energy=-14.087860257929796 last_walked_iter_clone=119809 energy=-14.08786025792893 stress="0.021478147637998785 9.208013578429538e-09 2.4416246484681342e-08 9.208013578429538e-09 0.021537862397040943 2.220565310161879e-08 2.4416246484681342e-08 2.220565310161879e-08 0.01079108859220793" pbc="T T F"
H        1.40307756       0.81006721      10.00000000        3       1.00000000       0.00000000       0.00000000       0.00000000       0.00000000       0.00000000       0.00000000
H        4.20923268       0.81006721      10.00000000        3       1.00000000       0.00000000       0.00000000       0.00000000       0.00000000       0.00000000       0.00000000
H        0.00000000       3.24026883      10.00000000        3       1.00000000       0.00000000       0.00000000       0.00000000       0.00000000       0.00000000       0.00000000
H        2.80615512       3.24026883      10.00000000        3       1.00000000       0.00000000       0.00000000       0.00000000       0.00000000       0.00000000       0.00000000
H        0.00000000       1.62013441      12.29121606        2       1.00000000       0.00000000       0.00000000       0.00000000       0.00000000       0.00000000       0.00000000
H        2.80615512       1.62013441      12.29121606        2       1.00000000       0.00000000       0.00000000       0.00000000       0.00000000       0.00000000       0.00000000
H        1.40307756       4.05033604      12.29121606        2       1.00000000       0.00000000       0.00000000       0.00000000       0.00000000       0.00000000       0.00000000
H        4.20923268       4.05033604      12.29121606        2       1.00000000       0.00000000       0.00000000       0.00000000       0.00000000       0.00000000       0.00000000
H        0.00000000       0.00000000      14.58243212        1       1.00000000       0.00000000       0.00000000       0.00000000       0.00000000       0.00000000       0.00000000
H        2.80615512       0.00000000      14.58243212        1       1.00000000       0.00000000       0.00000000       0.00000000       0.00000000       0.00000000       0.00000000
H        1.40307756       2.43020162      14.58243212        1       1.00000000       0.00000000       0.00000000       0.00000000       0.00000000       0.00000000       0.00000000
H        4.20923268       2.43020162      14.58243212        1       1.00000000       0.00000000       0.00000000       0.00000000       0.00000000       0.00000000       0.00000000
H        4.20923430       0.79347276      16.80071708        0       1.00000000      -0.00000020       0.00000183       0.00000058      -0.00000234       0.00000280       0.00000195
H        1.40307827       0.81922434      16.83184650        0       1.00000000       0.00000052       0.00000050       0.00000118       0.00000153       0.00000674       0.00000117
H       -0.00000036       4.86040373       7.77172796        0       1.00000000      -0.00000148      -0.00000092      -0.00000041      -0.00000016      -0.00000187       0.00000144
H        4.20923588       2.42881260      19.01468896        0       1.00000000      -0.00000053       0.00000002       0.00000006      -0.00000034      -0.00000028      -0.00000343
H        2.80615516       0.00000089       7.77172701        0       1.00000000      -0.00000080       0.00000062       0.00000059      -0.00000142       0.00000085       0.00000348
H        2.79879376       3.24443008      16.79599978        0       1.00000000       0.00000043      -0.00000025       0.00000021       0.00000067      -0.00000228       0.00000094
H        1.40307746       2.43020211       7.77172710        0       1.00000000      -0.00000128      -0.00000026       0.00000065       0.00000204       0.00000302      -0.00000139
H        0.00736444       3.24442997      16.79599911        0       1.00000000       0.00000059       0.00000189      -0.00000095      -0.00000055      -0.00000676       0.00000001
H        4.20923217       2.43020235       7.77172825        0       1.00000000      -0.00000055      -0.00000102      -0.00000037       0.00000153       0.00000050       0.00000018
21
Lattice="5.612310241546866 0.0 0.0 0.0 4.860403243099165 0.0 0.0 0.0 24.582432123328676" Properties=species:S:1:pos:R:3:tags:I:1:masses:R:1:momenta:R:3:forces:R:3 KEmax=27.14459056223422 iter=119999 volume=670.5618179858607 ns_energy=-14.087860257929933 last_walked_iter_clone=119893 energy=-14.08786025792893 stress="0.021478147637998785 9.208013578429538e-09 2.4416246484681342e-08 9.208013578429538e-09 0.021537862397040943 2.220565310161879e-08 2.4416246484681342e-08 2.220565310161879e-08 0.01079108859220793" pbc="T T F"
H        1.40307756       0.81006721      10.00000000        3       1.00000000       0.00000000       0.00000000       0.00000000       0.00000000       0.00000000       0.00000000
H        4.20923268       0.81006721      10.00000000        3       1.00000000       0.00000000       0.00000000       0.00000000       0.00000000       0.00000000       0.00000000
H        0.00000000       3.24026883      10.00000000        3       1.00000000       0.00000000       0.00000000       0.00000000       0.00000000       0.00000000       0.00000000
H        2.80615512       3.24026883      10.00000000        3       1.00000000       0.00000000       0.00000000       0.00000000       0.00000000       0.00000000       0.00000000
H        0.00000000       1.62013441      12.29121606        2       1.00000000       0.00000000       0.00000000       0.00000000       0.00000000       0.00000000       0.00000000
H        2.80615512       1.62013441      12.29121606        2       1.00000000       0.00000000       0.00000000       0.00000000       0.00000000       0.00000000       0.00000000
H        1.40307756       4.05033604      12.29121606        2       1.00000000       0.00000000       0.00000000       0.00000000       0.00000000       0.00000000       0.00000000
H        4.20923268       4.05033604      12.29121606        2       1.00000000       0.00000000       0.00000000       0.00000000       0.00000000       0.00000000       0.00000000
H        0.00000000       0.00000000      14.58243212        1       1.00000000       0.00000000       0.00000000       0.00000000       0.00000000       0.00000000       0.00000000
H        2.80615512       0.00000000      14.58243212        1       1.00000000       0.00000000       0.00000000       0.00000000       0.00000000       0.00000000       0.00000000
H        1.40307756       2.43020162      14.58243212        1       1.00000000       0.00000000       0.00000000       0.00000000       0.00000000       0.00000000       0.00000000
H        4.20923268       2.43020162      14.58243212        1       1.00000000       0.00000000       0.00000000       0.00000000       0.00000000       0.00000000       0.00000000
H        4.20923340       0.79347215      16.80071676        0       1.00000000       0.00000012       0.00000012       0.00000052      -0.00000234       0.00000280       0.00000195
H        1.40307887       0.81922378      16.83184608        0       1.00000000      -0.00000097      -0.00000079       0.00000045       0.00000153       0.00000674       0.00000117
H        5.61231050      -0.00000006       7.77172708        0       1.00000000       0.00000001      -0.00000034      -0.00000115      -0.00000016      -0.00000187       0.00000144
H        4.20923165       2.42881068      19.01468735        0       1.00000000       0.00000064      -0.00000014      -0.00000007      -0.00000034      -0.00000028      -0.00000343
H        2.80615548      -0.00000009       7.77172706        0       1.00000000      -0.00000064      -0.00000117      -0.00000233      -0.00000142       0.00000085       0.00000348
H        2.79879302       3.24443045      16.79599874        0       1.00000000       0.00000066      -0.00000114       0.00000163       0.00000067      -0.00000228       0.00000094
H        1.40307776       2.43020185       7.77172777        0       1.00000000       0.00000078       0.00000068       0.00000028       0.00000204       0.00000302      -0.00000139
H        0.00736446       3.24442923      16.79599958        0       1.00000000       0.00000013      -0.00000028       0.00000128      -0.00000055      -0.00000676       0.00000001
H        4.20923273       2.43020045       7.77172644        0       1.00000000      -0.00000027       0.00000036       0.00000046       0.00000153       0.00000050       0.00000018
21
Lattice="5.612310241546866 0.0 0.0 0.0 4.860403243099165 0.0 0.0 0.0 24.582432123328676" Properties=species:S:1:pos:R:3:tags:I:1:masses:R:1:momenta:R:3:forces:R:3 KEmax=27.14459056223422 iter=119999 volume=670.5618179858607 ns_energy=-14.087860257929854 last_walked_iter_clone=119251 energy=-14.08786025792893 stress="0.021478147637998785 9.208013578429538e-09 2.4416246484681342e-08 9.208013578429538e-09 0.021537862397040943 2.220565310161879e-08 2.4416246484681342e-08 2.220565310161879e-08 0.01079108859220793" pbc="T T F"
H        1.40307756       0.81006721      10.00000000        3       1.00000000       0.00000000       0.00000000       0.00000000       0.00000000       0.00000000       0.00000000
H        4.20923268       0.81006721      10.00000000        3       1.00000000       0.00000000       0.00000000       0.00000000       0.00000000       0.00000000       0.00000000
H        0.00000000       3.24026883      10.00000000        3       1.00000000       0.00000000       0.00000000       0.00000000       0.00000000       0.00000000       0.00000000
H        2.80615512       3.24026883      10.00000000        3       1.00000000       0.00000000       0.00000000       0.00000000       0.00000000       0.00000000       0.00000000
H        0.00000000       1.62013441      12.29121606        2       1.00000000       0.00000000       0.00000000       0.00000000       0.00000000       0.00000000       0.00000000
H        2.80615512       1.62013441      12.29121606        2       1.00000000       0.00000000       0.00000000       0.00000000       0.00000000       0.00000000       0.00000000
H        1.40307756       4.05033604      12.29121606        2       1.00000000       0.00000000       0.00000000       0.00000000       0.00000000       0.00000000       0.00000000
H        4.20923268       4.05033604      12.29121606        2       1.00000000       0.00000000       0.00000000       0.00000000       0.00000000       0.00000000       0.00000000
H        0.00000000       0.00000000      14.58243212        1       1.00000000       0.00000000       0.00000000       0.00000000       0.00000000       0.00000000       0.00000000
H        2.80615512       0.00000000      14.58243212        1       1.00000000       0.00000000       0.00000000       0.00000000       0.00000000       0.00000000       0.00000000
H        1.40307756       2.43020162      14.58243212        1       1.00000000       0.00000000       0.00000000       0.00000000       0.00000000       0.00000000       0.00000000
H        4.20923268       2.43020162      14.58243212        1       1.00000000       0.00000000       0.00000000       0.00000000       0.00000000       0.00000000       0.00000000
H        4.20923265       0.79347199      16.80071722        0       1.00000000      -0.00000044      -0.00000070      -0.00000094      -0.00000234       0.00000280       0.00000195
H        1.40307687       0.81922305      16.83184702        0       1.00000000      -0.00000050      -0.00000053      -0.00000107       0.00000153       0.00000674       0.00000117
H        0.00000091      -0.00000048       7.77172678        0       1.00000000       0.00000019      -0.00000174       0.00000050      -0.00000016      -0.00000187       0.00000144
H        4.20923326       2.42881299      19.01468790        0       1.00000000      -0.00000002       0.00000004       0.00000034      -0.00000034      -0.00000028      -0.00000343
H        2.80615554      -0.00000162       7.77172645        0       1.00000000      -0.00000138      -0.00000061      -0.00000001      -0.00000142       0.00000085       0.00000348
H        2.79879137       3.24442936      16.79599967        0       1.00000000      -0.00000013       0.00000101      -0.00000005       0.00000067      -0.00000228       0.00000094
H        1.40307750       2.43020007       7.77172760        0       1.00000000      -0.00000166       0.00000087       0.00000097       0.00000204       0.00000302      -0.00000139
H        0.00736324       3.24442967      16.79599914        0       1.00000000       0.00000215      -0.00000051      -0.00000040      -0.00000055      -0.00000676       0.00000001
H        4.20923261       2.43020137       7.77172690        0       1.00000000       0.00000053       0.00000080       0.00000036       0.00000153       0.00000050       0.00000018
21
Lattice="5.612310241546866 0.0 0.0 0.0 4.860403243099165 0.0 0.0 0.0 24.582432123328676" Properties=species:S:1:pos:R:3:tags:I:1:masses:R:1:momenta:R:3:forces:R:3 KEmax=27.14459056223422 iter=119999 volume=670.5618179858607 ns_energy=-14.087860257927018 last_walked_iter_clone=119999 energy=-14.08786025792893 stress="0.021478147637998785 9.208013578429538e-09 2.4416246484681342e-08 9.208013578429538e-09 0.021537862397040943 2.220565310161879e-08 2.4416246484681342e-08 2.220565310161879e-08 0.01079108859220793" pbc="T T F"
H        1.40307756       0.81006721      10.00000000        3       1.00000000       0.00000000       0.00000000       0.00000000       0.00000000       0.00000000       0.00000000
H        4.20923268       0.81006721      10.00000000        3       1.00000000       0.00000000       0.00000000       0.00000000       0.00000000       0.00000000       0.00000000
H        0.00000000       3.24026883      10.00000000        3       1.00000000       0.00000000       0.00000000       0.00000000       0.00000000       0.00000000       0.00000000
H        2.80615512       3.24026883      10.00000000        3       1.00000000       0.00000000       0.00000000       0.00000000       0.00000000       0.00000000       0.00000000
H        0.00000000       1.62013441      12.29121606        2       1.00000000       0.00000000       0.00000000       0.00000000       0.00000000       0.00000000       0.00000000
H        2.80615512       1.62013441      12.29121606        2       1.00000000       0.00000000       0.00000000       0.00000000       0.00000000       0.00000000       0.00000000
H        1.40307756       4.05033604      12.29121606        2       1.00000000       0.00000000       0.00000000       0.00000000       0.00000000       0.00000000       0.00000000
H        4.20923268       4.05033604      12.29121606        2       1.00000000       0.00000000       0.00000000       0.00000000       0.00000000       0.00000000       0.00000000
H        0.00000000       0.00000000      14.58243212        1       1.00000000       0.00000000       0.00000000       0.00000000       0.00000000       0.00000000       0.00000000
H        2.80615512       0.00000000      14.58243212        1       1.00000000       0.00000000       0.00000000       0.00000000       0.00000000       0.00000000       0.00000000
H        1.40307756       2.43020162      14.58243212        1       1.00000000       0.00000000       0.00000000       0.00000000       0.00000000       0.00000000       0.00000000
H        4.20923268       2.43020162      14.58243212        1       1.00000000       0.00000000       0.00000000       0.00000000       0.00000000       0.00000000       0.00000000
H        4.20923219       0.79347229      16.80071602        0       1.00000000      -0.00000016       0.00000093       0.00000120      -0.00000234       0.00000280       0.00000195
H        1.40307704       0.81922266      16.83184669        0       1.00000000       0.00000028      -0.00000044      -0.00000080       0.00000153       0.00000674       0.00000117
H        5.61231078       0.00000075       7.77172659        0       1.00000000       0.00000061      -0.00000030       0.00000067      -0.00000016      -0.00000187       0.00000144
H        4.20923005       2.42881183      19.01468798        0       1.00000000      -0.00000164       0.00000163      -0.00000079      -0.00000034      -0.00000028      -0.00000343
H        2.80615600       0.00000039       7.77172634        0       1.00000000      -0.00000048      -0.00000116       0.00000066      -0.00000142       0.00000085       0.00000348
H        2.79879153       3.24442943      16.79599852        0       1.00000000       0.00000063       0.00000163       0.00000080       0.00000067      -0.00000228       0.00000094