18
Lattice="5.612310241546866 0.0 0.0 0.0 4.860403243099165 0.0 0.0 0.0 14.582432123328676" Properties=species:S:1:pos:R:3:tags:I:1:masses:R:1:momenta:R:3:forces:R:3 KEmax=23.26679191048647 iter=87020 volume=397.78090899293073 ns_energy=-11.638031574905527 last_walked_iter_clone=86888 energy=-11.638031574956672 stress="0.0225992193674422 -2.887503951868421e-08 1.0908242132813334e-07 -2.887503951868421e-08 0.022713692050312886 5.294709549132458e-08 1.0908242132813334e-07 5.294709549132458e-08 0.012286264218141742" pbc="T T F"
H        1.40307756       0.81006721       5.00000000        3       1.00000000       0.00000000       0.00000000       0.00000000       0.00000000       0.00000000       0.00000000
H        4.20923268       0.81006721       5.00000000        3       1.00000000       0.00000000       0.00000000       0.00000000       0.00000000       0.00000000       0.00000000
H        0.00000000       3.24026883       5.00000000        3       1.00000000       0.00000000       0.00000000       0.00000000       0.00000000       0.00000000       0.00000000
H        2.80615512       3.24026883       5.00000000        3       1.00000000       0.00000000       0.00000000       0.00000000       0.00000000       0.00000000       0.00000000
H        0.00000000       1.62013441       7.29121606        2       1.00000000       0.00000000       0.00000000       0.00000000       0.00000000       0.00000000       0.00000000
H        2.80615512       1.62013441       7.29121606        2       1.00000000       0.00000000       0.00000000       0.00000000       0.00000000       0.00000000       0.00000000
H        1.40307756       4.05033604       7.29121606        2       1.00000000       0.00000000       0.00000000       0.00000000       0.00000000       0.00000000       0.00000000
H        4.20923268       4.05033604       7.29121606        2       1.00000000       0.00000000       0.00000000       0.00000000       0.00000000       0.00000000       0.00000000
H        0.00000000       0.00000000       9.58243212        1       1.00000000       0.00000000       0.00000000       0.00000000       0.00000000       0.00000000       0.00000000
H        2.80615512       0.00000000       9.58243212        1       1.00000000       0.00000000       0.00000000       0.00000000       0.00000000       0.00000000       0.00000000
H        1.40307756       2.43020162       9.58243212        1       1.00000000       0.00000000       0.00000000       0.00000000       0.00000000       0.00000000       0.00000000
H        4.20923268       2.43020162       9.58243212        1       1.00000000       0.00000000       0.00000000       0.00000000       0.00000000       0.00000000       0.00000000
H        1.40308090       4.05033408       2.77136641        0       1.00000000      -0.00000564      -0.00000061       0.00000171       0.00000807       0.00000196      -0.00000139
H        4.20923468       4.05033720       2.77136661        0       1.00000000      -0.00000079       0.00000232       0.00000566       0.00000141      -0.00000267      -0.00000424
H        2.79622535       1.61998694      11.81113265        0       1.00000000      -0.00000039       0.00000099      -0.00000126      -0.00000343       0.00000409      -0.00000024
H        2.80615865       1.62013128       2.77136785        0       1.00000000      -0.00000025      -0.00000053       0.00000188       0.00000092       0.00000554      -0.00000061
H        4.21916484       4.05018995      11.81113074        0       1.00000000      -0.00000106       0.00000151      -0.00000215       0.00000177      -0.00000652       0.00000048
H        0.00000297       1.62013385       2.77136630        0       1.00000000      -0.00000275      -0.00000551      -0.00000134      -0.00000002      -0.00000098       0.00000215
18
Lattice="5.612310241546866 0.0 0.0 0.0 4.860403243099165 0.0 0.0 0.0 14.582432123328676" Properties=species:S:1:pos:R:3:tags:I:1:masses:R:1:momenta:R:3:forces:R:3 KEmax=23.26679191048647 iter=87020 volume=397.78090899293073 ns_energy=-11.638031574906865 last_walked_iter_clone=86990 energy=-11.638031574956672 stress="0.0225992193674422 -2.887503951868421e-08 1.0908242132813334e-07 -2.887503951868421e-08 0.022713692050312886 5.294709549132458e-08 1.0908242132813334e-07 5.294709549132458e-08 0.012286264218141742" pbc="T T F"
H        1.40307756       0.81006721       5.00000000        3       1.00000000       0.00000000       0.00000000       0.00000000       0.00000000       0.00000000       0.00000000
H        4.20923268       0.81006721       5.00000000        3       1.00000000       0.00000000       0.00000000       0.00000000       0.00000000       0.00000000       0.00000000
H        0.00000000       3.24026883       5.00000000        3       1.00000000       0.00000000       0.00000000       0.00000000       0.00000000       0.00000000       0.00000000
H        2.80615512       3.24026883       5.00000000        3       1.00000000       0.00000000       0.00000000       0.00000000       0.00000000       0.00000000       0.00000000
H        0.00000000       1.62013441       7.29121606        2       1.00000000       0.00000000       0.00000000       0.00000000       0.00000000       0.00000000       0.00000000
H        2.80615512       1.62013441       7.29121606        2       1.00000000       0.00000000       0.00000000       0.00000000       0.00000000       0.00000000       0.00000000
H        1.40307756       4.05033604       7.29121606        2       1.00000000       0.00000000       0.00000000       0.00000000       0.00000000       0.00000000       0.00000000
H        4.20923268       4.05033604       7.29121606        2       1.00000000       0.00000000       0.00000000       0.00000000       0.00000000       0.00000000       0.00000000
H        0.00000000       0.00000000       9.58243212        1       1.00000000       0.00000000       0.00000000       0.00000000       0.00000000       0.00000000       0.00000000
H        2.80615512       0.00000000       9.58243212        1       1.00000000       0.00000000       0.00000000       0.00000000       0.00000000       0.00000000       0.00000000
H        1.40307756       2.43020162       9.58243212        1       1.00000000       0.00000000       0.00000000       0.00000000       0.00000000       0.00000000       0.00000000
H        4.20923268       2.43020162       9.58243212        1       1.00000000       0.00000000       0.00000000       0.00000000       0.00000000       0.00000000       0.00000000
H        1.40307737       4.05033235       2.77136678        0       1.00000000       0.00000167      -0.00000325      -0.00000072       0.00000807       0.00000196      -0.00000139
H        4.20922921       4.05033821       2.77136739        0       1.00000000      -0.00000314       0.00000050       0.00000081       0.00000141      -0.00000267      -0.00000424
H        2.79622386       1.61998804      11.81113021        0       1.00000000      -0.00000310      -0.00000198       0.00000094      -0.00000343       0.00000409      -0.00000024
H        2.80615432       1.62013143       2.77136534        0       1.00000000       0.00000084      -0.00000330       0.00000019       0.00000092       0.00000554      -0.00000061
H        4.21916578       4.05018856      11.81113286        0       1.00000000       0.00000175      -0.00000085      -0.00000029       0.00000177      -0.00000652       0.00000048
H       -0.00000056       1.62013461       2.77136825        0       1.00000000       0.00000335      -0.00000219      -0.00000178      -0.00000002      -0.00000098       0.00000215
18
Lattice="5.612310241546866 0.0 0.0 0.0 4.860403243099165 0.0 0.0 0.0 14.582432123328676" Properties=species:S:1:pos:R:3:tags:I:1:masses:R:1:momenta:R:3:forces:R:3 KEmax=23.26679191048647 iter=87020 volume=397.78090899293073 ns_energy=-11.638031574906258 last_walked_iter_clone=86983 energy=-11.638031574956672 stress="0.0225992193674422 -2.887503951868421e-08 1.0908242132813334e-07 -2.887503951868421e-08 0.022713692050312886 5.294709549132458e-08 1.0908242132813334e-07 5.294709549132458e-08 0.012286264218141742" pbc="T T F"
H        1.40307756       0.81006721       5.00000000        3       1.00000000       0.00000000       0.00000000       0.00000000       0.00000000       0.00000000       0.00000000
H        4.20923268       0.81006721       5.00000000        3       1.00000000       0.00000000       0.00000000       0.00000000       0.00000000       0.00000000       0.00000000
H        0.00000000       3.24026883       5.00000000        3       1.00000000       0.00000000       0.00000000       0.00000000       0.00000000       0.00000000       0.00000000
H        2.80615512       3.24026883       5.00000000        3       1.00000000       0.00000000       0.00000000       0.00000000       0.00000000       0.00000000       0.00000000
H        0.00000000       1.62013441       7.29121606        2       1.00000000       0.00000000       0.00000000       0.00000000       0.00000000       0.00000000       0.00000000
H        2.80615512       1.62013441       7.29121606        2       1.00000000       0.00000000       0.00000000       0.00000000       0.00000000       0.00000000       0.00000000
H        1.40307756       4.05033604       7.29121606        2       1.00000000       0.00000000       0.00000000       0.00000000       0.00000000       0.00000000       0.00000000
H        4.20923268       4.05033604       7.29121606        2       1.00000000       0.00000000       0.00000000       0.00000000       0.00000000       0.00000000       0.00000000
H        0.00000000       0.00000000       9.58243212        1       1.00000000       0.00000000       0.00000000       0.00000000       0.00000000       0.00000000       0.00000000
H        2.80615512       0.00000000       9.58243212        1       1.00000000       0.00000000       0.00000000       0.00000000       0.00000000       0.00000000       0.00000000
H        1.40307756       2.43020162       9.58243212        1       1.00000000       0.00000000       0.00000000       0.00000000       0.00000000       0.00000000       0.00000000
H        4.20923268       2.43020162       9.58243212        1       1.00000000       0.00000000       0.00000000       0.00000000       0.00000000       0.00000000       0.00000000
H        1.40307416       4.05033366       2.77136718        0       1.00000000       0.00000190       0.00000145      -0.00000154       0.00000807       0.00000196      -0.00000139
H        4.20923253       4.05033422       2.77136729        0       1.00000000      -0.00000080       0.00000752      -0.00000040       0.00000141      -0.00000267      -0.00000424
H        2.79622342       1.61998743      11.81113247        0       1.00000000       0.00000476       0.00000117      -0.00000134      -0.00000343       0.00000409      -0.00000024
H        2.80615362       1.62013224       2.77136715        0       1.00000000      -0.00000272      -0.00000191      -0.00000035       0.00000092       0.00000554      -0.00000061
H        4.21916307       4.05019078      11.81113238        0       1.00000000       0.00000149       0.00000645      -0.00000030       0.00000177      -0.00000652       0.00000048
H       -0.00000121       1.62013341       2.77136623        0       1.00000000       0.00000037       0.00000012       0.00000235      -0.00000002      -0.00000098       0.00000215
18
Lattice="5.612310241546866 0.0 0.0 0.0 4.860403243099165 0.0 0.0 0.0 14.582432123328676" Properties=species:S:1:pos:R:3:tags:I:1:masses:R:1:momenta:R:3:forces:R:3 KEmax=23.26679191048647 iter=87020 volume=397.78090899293073 ns_energy=-11.638031574906444 last_walked_iter_clone=86922 energy=-11.638031574956672 stress="0.0225992193674422 -2.887503951868421e-08 1.0908242132813334e-07 -2.887503951868421e-08 0.022713692050312886 5.294709549132458e-08 1.0908242132813334e-07 5.294709549132458e-08 0.012286264218141742" pbc="T T F"
H        1.40307756       0.81006721       5.00000000        3       1.00000000       0.00000000       0.00000000       0.00000000       0.00000000       0.00000000       0.00000000
H        4.20923268       0.81006721       5.00000000        3       1.00000000       0.00000000       0.00000000       0.00000000       0.00000000       0.00000000       0.00000000
H        0.00000000       3.24026883       5.00000000        3       1.00000000       0.00000000       0.00000000       0.00000000       0.00000000       0.00000000       0.00000000
H        2.80615512       3.24026883       5.00000000        3       1.00000000       0.00000000       0.00000000       0.00000000       0.00000000       0.00000000       0.00000000
H        0.00000000       1.62013441       7.29121606        2       1.00000000       0.00000000       0.00000000       0.00000000       0.00000000       0.00000000       0.00000000
H        2.80615512       1.62013441       7.29121606        2       1.00000000       0.00000000       0.00000000       0.00000000       0.00000000       0.00000000       0.00000000
H        1.40307756       4.05033604       7.29121606        2       1.00000000       0.00000000       0.00000000       0.00000000       0.00000000       0.00000000       0.00000000
H        4.20923268       4.05033604       7.29121606        2       1.00000000       0.00000000       0.00000000       0.00000000       0.00000000       0.00000000       0.00000000
H        0.00000000       0.00000000       9.58243212        1       1.00000000       0.00000000       0.00000000       0.00000000       0.00000000       0.00000000       0.00000000
H        2.80615512       0.00000000       9.58243212        1       1.00000000       0.00000000       0.00000000       0.00000000       0.00000000       0.00000000       0.00000000
H        1.40307756       2.43020162       9.58243212        1       1.00000000       0.00000000       0.00000000       0.00000000       0.00000000       0.00000000       0.00000000
H        4.20923268       2.43020162       9.58243212        1       1.00000000       0.00000000       0.00000000       0.00000000       0.00000000       0.00000000       0.00000000
H        1.40308147       4.05033920       2.77136808        0       1.00000000       0.00000216      -0.00000228       0.00000017       0.00000807       0.00000196      -0.00000139
H        4.20923546       4.05033949       2.77136849        0       1.00000000      -0.00000005       0.00000092      -0.00000142       0.00000141      -0.00000267      -0.00000424
H        2.79622146       1.61998852      11.81112851        0       1.00000000       0.00000190      -0.00000053       0.00000289      -0.00000343       0.00000409      -0.00000024
H        2.80615754       1.62013614       2.77136784        0       1.00000000      -0.00000123      -0.00000048      -0.00000072       0.00000092       0.00000554      -0.00000061
H        4.21916241       4.05018811      11.81113381        0       1.00000000      -0.00000067       0.00000608      -0.00000180       0.00000177      -0.00000652       0.00000048
H        5.61231364       1.62013544       2.77137010        0       1.00000000      -0.00000191       0.00000253       0.00000072      -0.00000002      -0.00000098       0.00000215
18
Lattice="5.612310241546866 0.0 0.0 0.0 4.860403243099165 0.0 0.0 0.0 14.582432123328676" Properties=species:S:1:pos:R:3:tags:I:1:masses:R:1:momenta:R:3:forces:R:3 KEmax=23.26679191048647 iter=87020 volume=397.78090899293073 ns_energy=-11.63803157490708 last_walked_iter_clone=86930 energy=-11.638031574956672 stress="0.0225992193674422 -2.887503951868421e-08 1.0908242132813334e-07 -2.887503951868421e-08 0.022713692050312886 5.294709549132458e-08 1.0908242132813334e-07 5.294709549132458e-08 0.012286264218141742" pbc="T T F"
H        1.40307756       0.81006721       5.00000000        3       1.00000000       0.00000000       0.00000000       0.00000000       0.00000000       0.00000000       0.00000000
H        4.20923268       0.81006721       5.00000000        3       1.00000000       0.00000000       0.00000000       0.00000000       0.00000000       0.00000000       0.00000000
H        0.00000000       3.24026883       5.00000000        3       1.00000000       0.00000000       0.00000000       0.00000000       0.00000000       0.00000000       0.00000000
H        2.80615512       3.24026883       5.00000000        3       1.00000000       0.00000000       0.00000000       0.00000000       0.00000000       0.00000000       0.00000000
H        0.00000000       1.62013441       7.29121606        2       1.00000000       0.00000000       0.00000000       0.00000000       0.00000000       0.00000000       0.00000000
H        2.80615512       1.62013441       7.29121606        2       1.00000000       0.00000000       0.00000000       0.00000000       0.00000000       0.00000000       0.00000000
H        1.40307756       4.05033604       7.29121606        2       1.00000000       0.00000000       0.00000000       0.00000000       0.00000000       0.00000000       0.00000000
H        4.20923268       4.05033604       7.29121606        2       1.00000000       0.00000000       0.00000000       0.00000000       0.00000000       0.00000000       0.00000000
H        0.00000000       0.00000000       9.58243212        1       1.00000000       0.00000000       0.00000000       0.00000000       0.00000000       0.00000000       0.00000000
H        2.80615512       0.00000000       9.58243212        1       1.00000000       0.00000000       0.00000000       0.00000000       0.00000000       0.00000000       0.00000000
H        1.40307756       2.43020162       9.58243212        1       1.00000000       0.00000000       0.00000000       0.00000000       0.00000000       0.00000000       0.00000000
H        4.20923268       2.43020162       9.58243212        1       1.00000000       0.00000000       0.00000000       0.00000000       0.00000000       0.00000000       0.00000000
H        1.40307867       4.05033602       2.77136725        0       1.00000000      -0.00000031       0.00000157       0.00000269       0.00000807       0.00000196      -0.00000139
H        4.20923403       4.05033586       2.77136911        0       1.00000000      -0.00000269      -0.00000215       0.00000415       0.00000141      -0.00000267      -0.00000424
H        2.79622885       1.61998840      11.81113215        0       1.00000000       0.00000002       0.00000269       0.00000236      -0.00000343       0.00000409      -0.00000024
H        2.80615826       1.62013441       2.77136590        0       1.00000000      -0.00000214       0.00000038       0.00000225       0.00000092       0.00000554      -0.00000061
H        4.21916879       4.05018750      11.81113066        0       1.00000000       0.00000603       0.00000034      -0.00000221       0.00000177      -0.00000652       0.00000048
H        0.00000401       1.62013540       2.77136633        0       1.00000000       0.00000370      -0.00000304       0.00000085      -0.00000002      -0.00000098       0.00000215
18
Lattice="5.612310241546866 0.0 0.0 0.0 4.860403243099165 0.0 0.0 0.0 14.582432123328676" Properties=species:S:1:pos:R:3:tags:I:1:masses:R:1:momenta:R:3:forces:R:3 KEmax=23.26679191048647 iter=87020 volume=397.78090899293073 ns_energy=-11.63803157490682 last_walked_iter_clone=86934 energy=-11.638031574956672 stress="0.0225992193674422 -2.887503951868421e-08 1.0908242132813334e-07 -2.887503951868421e-08 0.022713692050312886 5.294709549132458e-08 1.0908242132813334e-07 5.294709549132458e-08 0.012286264218141742" pbc="T T F"
H        1.40307756       0.81006721       5.00000000        3       1.00000000       0.00000000       0.00000000       0.00000000       0.00000000       0.00000000       0.00000000
H        4.20923268       0.81006721       5.00000000        3       1.00000000       0.00000000       0.00000000       0.00000000       0.00000000       0.00000000       0.00000000
H        0.00000000       3.24026883       5.00000000        3       1.00000000       0.00000000       0.00000000       0.00000000       0.00000000       0.00000000       0.00000000
H        2.80615512       3.24026883       5.00000000        3       1.00000000       0.00000000       0.00000000       0.00000000       0.00000000       0.00000000       0.00000000
H        0.00000000       1.62013441       7.29121606        2       1.00000000       0.00000000       0.00000000       0.00000000       0.00000000       0.00000000       0.00000000
H        2.80615512       1.62013441       7.29121606        2       1.00000000       0.00000000       0.00000000       0.00000000       0.00000000       0.00000000       0.00000000
H        1.40307756       4.05033604       7.29121606        2       1.00000000       0.00000000       0.00000000       0.00000000       0.00000000       0.00000000       0.00000000
H        4.20923268       4.05033604       7.29121606        2       1.00000000       0.00000000       0.00000000       0.00000000       0.00000000       0.00000000       0.00000000
H        0.00000000       0.00000000       9.58243212        1       1.00000000       0.00000000       0.00000000       0.00000000       0.00000000       0.00000000       0.00000000
H        2.80615512       0.00000000       9.58243212        1       1.00000000       0.00000000       0.00000000       0.00000000       0.00000000       0.00000000       0.00000000
H        1.40307756       2.43020162       9.58243212        1       1.00000000       0.00000000       0.00000000       0.00000000       0.00000000       0.00000000       0.00000000
H        4.20923268       2.43020162       9.58243212        1       1.00000000       0.00000000       0.00000000       0.00000000       0.00000000       0.00000000       0.00000000
H        1.40307978       4.05033508       2.77136803        0       1.00000000       0.00000453       0.00000435      -0.00000307       0.00000807       0.00000196      -0.00000139
H        4.20923395       4.05033682       2.77136607        0       1.00000000       0.00000287      -0.00000257       0.00000582       0.00000141      -0.00000267      -0.00000424
H        2.79622210       1.61998686      11.81112925        0       1.00000000      -0.00000007      -0.00000030       0.00000177      -0.00000343       0.00000409      -0.00000024
H        2.80615675       1.62013369       2.77136674        0       1.00000000      -0.00000343      -0.00000097      -0.00000078       0.00000092       0.00000554      -0.00000061
H        4.21916735       4.05018640      11.81113158        0       1.00000000       0.00000071       0.00000094      -0.00000453       0.00000177      -0.00000652       0.00000048
H        0.00000203       1.62013588       2.77136643        0       1.00000000       0.00000252       0.00000232      -0.00000114      -0.00000002      -0.00000098       0.00000215
18
Lattice="5.612310241546866 0.0 0.0 0.0 4.860403243099165 0.0 0.0 0.0 14.582432123328676" Properties=species:S:1:pos:R:3:tags:I:1:masses:R:1:momenta:R:3:forces:R:3 KEmax=23.26679191048647 iter=87020 volume=397.78090899293073 ns_energy=-11.638031574906236 last_walked_iter_clone=86842 energy=-11.638031574956672 stress="0.0225992193674422 -2.887503951868421e-08 1.0908242132813334e-07 -2.887503951868421e-08 0.022713692050312886 5.294709549132458e-08 1.0908242132813334e-07 5.294709549132458e-08 0.012286264218141742" pbc="T T F"
H        1.40307756       0.81006721       5.00000000        3       1.00000000       0.00000000       0.00000000       0.00000000       0.00000000       0.00000000       0.00000000
H        4.20923268       0.81006721       5.00000000        3       1.00000000       0.00000000       0.00000000       0.00000000       0.00000000       0.00000000       0.00000000
H        0.00000000       3.24026883       5.00000000        3       1.00000000       0.00000000       0.00000000       0.00000000       0.00000000       0.00000000       0.00000000
H        2.80615512       3.24026883       5.00000000        3       1.00000000       0.00000000       0.00000000       0.00000000       0.00000000       0.00000000       0.00000000
H        0.00000000       1.62013441       7.29121606        2       1.00000000       0.00000000       0.00000000       0.00000000       0.00000000       0.00000000       0.00000000
H        2.80615512       1.62013441       7.29121606        2       1.00000000       0.00000000       0.00000000       0.00000000       0.00000000       0.00000000       0.00000000
H        1.40307756       4.05033604       7.29121606        2       1.00000000       0.00000000       0.00000000       0.00000000       0.00000000       0.00000000       0.00000000
H        4.20923268       4.05033604       7.29121606        2       1.00000000       0.00000000       0.00000000       0.00000000       0.00000000       0.00000000       0.00000000
H        0.00000000       0.00000000       9.58243212        1       1.00000000       0.00000000       0.00000000       0.00000000       0.00000000       0.00000000       0.00000000
H        2.80615512       0.00000000       9.58243212        1       1.00000000       0.00000000       0.00000000       0.00000000       0.00000000       0.00000000       0.00000000
H        1.40307756       2.43020162       9.58243212        1       1.00000000       0.00000000       0.00000000       0.00000000       0.00000000       0.00000000       0.00000000
H        4.20923268       2.43020162       9.58243212        1       1.00000000       0.00000000       0.00000000       0.00000000       0.00000000       0.00000000       0.00000000
H        1.40307676       4.05033740       2.77136679        0       1.00000000       0.00000210      -0.00000215       0.00000143       0.00000807       0.00000196      -0.00000139
H        4.20923283       4.05033652       2.77136627        0       1.00000000      -0.00000258      -0.00000164       0.00000596       0.00000141      -0.00000267      -0.00000424
H        2.79622681       1.61998485      11.81113200        0       1.00000000       0.00000113       0.00000128       0.00000037      -0.00000343       0.00000409      -0.00000024
H        2.80615698       1.62013562       2.77136647        0       1.00000000       0.00000176      -0.00000262       0.00000509       0.00000092       0.00000554      -0.00000061
H        4.21916694       4.05018402      11.81112849        0       1.00000000       0.00000285       0.00000118      -0.00000097       0.00000177      -0.00000652       0.00000048
H        5.61231197       1.62013596       2.77136739        0       1.00000000      -0.00000570       0.00000164       0.00000117      -0.00000002      -0.00000098       0.00000215
18
Lattice="5.612310241546866 0.0 0.0 0.0 4.860403243099165 0.0 0.0 0.0 14.582432123328676" Properties=species:S:1:pos:R:3:tags:I:1:masses:R:1:momenta:R:3:forces:R:3 KEmax=23.26679191048647 iter=87020 volume=397.78090899293073 ns_energy=-11.63803157491244 last_walked_iter_clone=86989 energy=-11.638031574956672 stress="0.0225992193674422 -2.887503951868421e-08 1.0908242132813334e-07 -2.887503951868421e-08 0.022713692050312886 5.294709549132458e-08 1.0908242132813334e-07 5.294709549132458e-08 0.012286264218141742" pbc="T T F"
H        1.40307756       0.81006721       5.00000000        3       1.00000000       0.00000000       0.00000000       0.00000000       0.00000000       0.00000000       0.00000000
H        4.20923268       0.81006721       5.00000000        3       1.00000000       0.00000000       0.00000000       0.00000000       0.00000000       0.00000000       0.00000000
H        0.00000000       3.24026883       5.00000000        3       1.00000000       0.00000000       0.00000000       0.00000000       0.00000000       0.00000000       0.00000000
H        2.80615512       3.24026883       5.00000000        3       1.00000000       0.00000000       0.00000000       0.00000000       0.00000000       0.00000000       0.00000000
H        0.00000000       1.62013441       7.29121606        2       1.00000000       0.00000000       0.00000000       0.00000000       0.00000000       0.00000000       0.00000000
H        2.80615512       1.62013441       7.29121606        2       1.00000000       0.00000000       0.00000000       0.00000000       0.00000000       0.00000000       0.00000000
H        1.40307756       4.05033604       7.29121606        2       1.00000000       0.00000000       0.00000000       0.00000000       0.00000000       0.00000000       0.00000000
H        4.20923268       4.05033604       7.29121606        2       1.00000000       0.00000000       0.00000000       0.00000000       0.00000000       0.00000000       0.00000000
H        0.00000000       0.00000000       9.58243212        1       1.00000000       0.00000000       0.00000000       0.00000000       0.00000000       0.00000000       0.00000000
H        2.80615512       0.00000000       9.58243212        1       1.00000000       0.00000000       0.00000000       0.00000000       0.00000000       0.00000000       0.00000000
H        1.40307756       2.43020162       9.58243212        1       1.00000000       0.00000000       0.00000000       0.00000000       0.00000000       0.00000000       0.00000000
H        4.20923268       2.43020162       9.58243212        1       1.00000000       0.00000000       0.00000000       0.00000000       0.00000000       0.00000000       0.00000000
H        1.40307571       4.05033564       2.77136901        0       1.00000000       0.00000297       0.00000437      -0.00000226       0.00000807       0.00000196      -0.00000139
H        4.20922948       4.05033654       2.77136855        0       1.00000000       0.00000154      -0.00000082       0.00000229       0.00000141      -0.00000267      -0.00000424
H        2.79622128       1.61998598      11.81112992        0       1.00000000      -0.00000178       0.00000402      -0.00000137      -0.00000343       0.00000409      -0.00000024