18
Lattice="5.612310241546866 0.0 0.0 0.0 4.860403243099165 0.0 0.0 0.0 14.582432123328676" Properties=species:S:1:pos:R:3:tags:I:1:masses:R:1:momenta:R:3:forces:R:3 KEmax=23.26679191048647 iter=116792 volume=397.78090899293073 ns_energy=-11.638031575010704 last_walked_iter_clone=115500 energy=-11.638031575009371 stress="0.022599269100746198 -9.804732318060363e-10 1.8442872395351593e-08 -9.804732318060363e-10 0.02271370544307947 1.8162478062467924e-09 1.8442872395351593e-08 1.8162478062467924e-09 0.012286307834614478" pbc="T T F"
H        1.40307756       0.81006721       5.00000000        3       1.00000000       0.00000000       0.00000000       0.00000000       0.00000000       0.00000000       0.00000000
H        4.20923268       0.81006721       5.00000000        3       1.00000000       0.00000000       0.00000000       0.00000000       0.00000000       0.00000000       0.00000000
H        0.00000000       3.24026883       5.00000000        3       1.00000000       0.00000000       0.00000000       0.00000000       0.00000000       0.00000000       0.00000000
H        2.80615512       3.24026883       5.00000000        3       1.00000000       0.00000000       0.00000000       0.00000000       0.00000000       0.00000000       0.00000000
H        0.00000000       1.62013441       7.29121606        2       1.00000000       0.00000000       0.00000000       0.00000000       0.00000000       0.00000000       0.00000000
H        2.80615512       1.62013441       7.29121606        2       1.00000000       0.00000000       0.00000000       0.00000000       0.00000000       0.00000000       0.00000000
H        1.40307756       4.05033604       7.29121606        2       1.00000000       0.00000000       0.00000000       0.00000000       0.00000000       0.00000000       0.00000000
H        4.20923268       4.05033604       7.29121606        2       1.00000000       0.00000000       0.00000000       0.00000000       0.00000000       0.00000000       0.00000000
H        0.00000000       0.00000000       9.58243212        1       1.00000000       0.00000000       0.00000000       0.00000000       0.00000000       0.00000000       0.00000000
H        2.80615512       0.00000000       9.58243212        1       1.00000000       0.00000000       0.00000000       0.00000000       0.00000000       0.00000000       0.00000000
H        1.40307756       2.43020162       9.58243212        1       1.00000000       0.00000000       0.00000000       0.00000000       0.00000000       0.00000000       0.00000000
H        4.20923268       2.43020162       9.58243212        1       1.00000000       0.00000000       0.00000000       0.00000000       0.00000000       0.00000000       0.00000000
H        1.40307703       4.05033664       2.77136733        0       1.00000000       0.00000024      -0.00000009      -0.00000060       0.00000091       0.00000016       0.00000015
H        4.20923226       4.05033652       2.77136739        0       1.00000000       0.00000107       0.00000018      -0.00000041      -0.00000154       0.00000081      -0.00000078
H        2.79622394       1.61998679      11.81113011        0       1.00000000      -0.00000110      -0.00000042       0.00000085      -0.00000101       0.00000155      -0.00000077
H        2.80615459       1.62013410       2.77136651        0       1.00000000      -0.00000048       0.00000010       0.00000108       0.00000586      -0.00000078       0.00000003
H        4.21916312       4.05018836      11.81113071        0       1.00000000       0.00000059       0.00000013       0.00000004      -0.00000032      -0.00000190      -0.00000060
H        0.00000018       1.62013486       2.77136705        0       1.00000000       0.00000039      -0.00000039       0.00000042      -0.00000452       0.00000008      -0.00000049
18
Lattice="5.612310241546866 0.0 0.0 0.0 4.860403243099165 0.0 0.0 0.0 14.582432123328676" Properties=species:S:1:pos:R:3:tags:I:1:masses:R:1:momenta:R:3:forces:R:3 KEmax=23.26679191048647 iter=116792 volume=397.78090899293073 ns_energy=-11.638031575010695 last_walked_iter_clone=116467 energy=-11.638031575009371 stress="0.022599269100746198 -9.804732318060363e-10 1.8442872395351593e-08 -9.804732318060363e-10 0.02271370544307947 1.8162478062467924e-09 1.8442872395351593e-08 1.8162478062467924e-09 0.012286307834614478" pbc="T T F"
H        1.40307756       0.81006721       5.00000000        3       1.00000000       0.00000000       0.00000000       0.00000000       0.00000000       0.00000000       0.00000000
H        4.20923268       0.81006721       5.00000000        3       1.00000000       0.00000000       0.00000000       0.00000000       0.00000000       0.00000000       0.00000000
H        0.00000000       3.24026883       5.00000000        3       1.00000000       0.00000000       0.00000000       0.00000000       0.00000000       0.00000000       0.00000000
H        2.80615512       3.24026883       5.00000000        3       1.00000000       0.00000000       0.00000000       0.00000000       0.00000000       0.00000000       0.00000000
H        0.00000000       1.62013441       7.29121606        2       1.00000000       0.00000000       0.00000000       0.00000000       0.00000000       0.00000000       0.00000000
H        2.80615512       1.62013441       7.29121606        2       1.00000000       0.00000000       0.00000000       0.00000000       0.00000000       0.00000000       0.00000000
H        1.40307756       4.05033604       7.29121606        2       1.00000000       0.00000000       0.00000000       0.00000000       0.00000000       0.00000000       0.00000000
H        4.20923268       4.05033604       7.29121606        2       1.00000000       0.00000000       0.00000000       0.00000000       0.00000000       0.00000000       0.00000000
H        0.00000000       0.00000000       9.58243212        1       1.00000000       0.00000000       0.00000000       0.00000000       0.00000000       0.00000000       0.00000000
H        2.80615512       0.00000000       9.58243212        1       1.00000000       0.00000000       0.00000000       0.00000000       0.00000000       0.00000000       0.00000000
H        1.40307756       2.43020162       9.58243212        1       1.00000000       0.00000000       0.00000000       0.00000000       0.00000000       0.00000000       0.00000000
H        4.20923268       2.43020162       9.58243212        1       1.00000000       0.00000000       0.00000000       0.00000000       0.00000000       0.00000000       0.00000000
H        1.40307695       4.05033663       2.77136784        0       1.00000000      -0.00000027      -0.00000097      -0.00000067       0.00000091       0.00000016       0.00000015
H        4.20923211       4.05033676       2.77136679        0       1.00000000      -0.00000004       0.00000119       0.00000069      -0.00000154       0.00000081      -0.00000078
H        2.79622501       1.61998663      11.81113048        0       1.00000000      -0.00000090      -0.00000014      -0.00000067      -0.00000101       0.00000155      -0.00000077
H        2.80615491       1.62013459       2.77136711        0       1.00000000      -0.00000020      -0.00000068       0.00000033       0.00000586      -0.00000078       0.00000003
H        4.21916405       4.05018853      11.81113101        0       1.00000000       0.00000019       0.00000016       0.00000004      -0.00000032      -0.00000190      -0.00000060
H       -0.00000005       1.62013473       2.77136720        0       1.00000000      -0.00000128       0.00000017      -0.00000071      -0.00000452       0.00000008      -0.00000049
18
Lattice="5.612310241546866 0.0 0.0 0.0 4.860403243099165 0.0 0.0 0.0 14.582432123328676" Properties=species:S:1:pos:R:3:tags:I:1:masses:R:1:momenta:R:3:forces:R:3 KEmax=23.26679191048647 iter=116792 volume=397.78090899293073 ns_energy=-11.638031575010622 last_walked_iter_clone=116465 energy=-11.638031575009371 stress="0.022599269100746198 -9.804732318060363e-10 1.8442872395351593e-08 -9.804732318060363e-10 0.02271370544307947 1.8162478062467924e-09 1.8442872395351593e-08 1.8162478062467924e-09 0.012286307834614478" pbc="T T F"
H        1.40307756       0.81006721       5.00000000        3       1.00000000       0.00000000       0.00000000       0.00000000       0.00000000       0.00000000       0.00000000
H        4.20923268       0.81006721       5.00000000        3       1.00000000       0.00000000       0.00000000       0.00000000       0.00000000       0.00000000       0.00000000
H        0.00000000       3.24026883       5.00000000        3       1.00000000       0.00000000       0.00000000       0.00000000       0.00000000       0.00000000       0.00000000
H        2.80615512       3.24026883       5.00000000        3       1.00000000       0.00000000       0.00000000       0.00000000       0.00000000       0.00000000       0.00000000
H        0.00000000       1.62013441       7.29121606        2       1.00000000       0.00000000       0.00000000       0.00000000       0.00000000       0.00000000       0.00000000
H        2.80615512       1.62013441       7.29121606        2       1.00000000       0.00000000       0.00000000       0.00000000       0.00000000       0.00000000       0.00000000
H        1.40307756       4.05033604       7.29121606        2       1.00000000       0.00000000       0.00000000       0.00000000       0.00000000       0.00000000       0.00000000
H        4.20923268       4.05033604       7.29121606        2       1.00000000       0.00000000       0.00000000       0.00000000       0.00000000       0.00000000       0.00000000
H        0.00000000       0.00000000       9.58243212        1       1.00000000       0.00000000       0.00000000       0.00000000       0.00000000       0.00000000       0.00000000
H        2.80615512       0.00000000       9.58243212        1       1.00000000       0.00000000       0.00000000       0.00000000       0.00000000       0.00000000       0.00000000
H        1.40307756       2.43020162       9.58243212        1       1.00000000       0.00000000       0.00000000       0.00000000       0.00000000       0.00000000       0.00000000
H        4.20923268       2.43020162       9.58243212        1       1.00000000       0.00000000       0.00000000       0.00000000       0.00000000       0.00000000       0.00000000
H        1.40307690       4.05033548       2.77136732        0       1.00000000       0.00000016      -0.00000023       0.00000075       0.00000091       0.00000016       0.00000015
H        4.20923211       4.05033540       2.77136723        0       1.00000000      -0.00000020      -0.00000009       0.00000051      -0.00000154       0.00000081      -0.00000078
H        2.79622516       1.61998702      11.81113081        0       1.00000000       0.00000045      -0.00000130       0.00000041      -0.00000101       0.00000155      -0.00000077
H        2.80615513       1.62013376       2.77136706        0       1.00000000      -0.00000084      -0.00000033       0.00000071       0.00000586      -0.00000078       0.00000003
H        4.21916358       4.05018925      11.81113071        0       1.00000000      -0.00000036      -0.00000087       0.00000026      -0.00000032      -0.00000190      -0.00000060
H       -0.00000004       1.62013397       2.77136669        0       1.00000000      -0.00000152      -0.00000052       0.00000088      -0.00000452       0.00000008      -0.00000049
18
Lattice="5.612310241546866 0.0 0.0 0.0 4.860403243099165 0.0 0.0 0.0 14.582432123328676" Properties=species:S:1:pos:R:3:tags:I:1:masses:R:1:momenta:R:3:forces:R:3 KEmax=23.26679191048647 iter=116792 volume=397.78090899293073 ns_energy=-11.638031575010533 last_walked_iter_clone=115950 energy=-11.638031575009371 stress="0.022599269100746198 -9.804732318060363e-10 1.8442872395351593e-08 -9.804732318060363e-10 0.02271370544307947 1.8162478062467924e-09 1.8442872395351593e-08 1.8162478062467924e-09 0.012286307834614478" pbc="T T F"
H        1.40307756       0.81006721       5.00000000        3       1.00000000       0.00000000       0.00000000       0.00000000       0.00000000       0.00000000       0.00000000
H        4.20923268       0.81006721       5.00000000        3       1.00000000       0.00000000       0.00000000       0.00000000       0.00000000       0.00000000       0.00000000
H        0.00000000       3.24026883       5.00000000        3       1.00000000       0.00000000       0.00000000       0.00000000       0.00000000       0.00000000       0.00000000
H        2.80615512       3.24026883       5.00000000        3       1.00000000       0.00000000       0.00000000       0.00000000       0.00000000       0.00000000       0.00000000
H        0.00000000       1.62013441       7.29121606        2       1.00000000       0.00000000       0.00000000       0.00000000       0.00000000       0.00000000       0.00000000
H        2.80615512       1.62013441       7.29121606        2       1.00000000       0.00000000       0.00000000       0.00000000       0.00000000       0.00000000       0.00000000
H        1.40307756       4.05033604       7.29121606        2       1.00000000       0.00000000       0.00000000       0.00000000       0.00000000       0.00000000       0.00000000
H        4.20923268       4.05033604       7.29121606        2       1.00000000       0.00000000       0.00000000       0.00000000       0.00000000       0.00000000       0.00000000
H        0.00000000       0.00000000       9.58243212        1       1.00000000       0.00000000       0.00000000       0.00000000       0.00000000       0.00000000       0.00000000
H        2.80615512       0.00000000       9.58243212        1       1.00000000       0.00000000       0.00000000       0.00000000       0.00000000       0.00000000       0.00000000
H        1.40307756       2.43020162       9.58243212        1       1.00000000       0.00000000       0.00000000       0.00000000       0.00000000       0.00000000       0.00000000
H        4.20923268       2.43020162       9.58243212        1       1.00000000       0.00000000       0.00000000       0.00000000       0.00000000       0.00000000       0.00000000
H        1.40307794       4.05033695       2.77136720        0       1.00000000      -0.00000034       0.00000067      -0.00000064       0.00000091       0.00000016       0.00000015
H        4.20923269       4.05033634       2.77136726        0       1.00000000       0.00000042       0.00000014       0.00000012      -0.00000154       0.00000081      -0.00000078
H        2.79622391       1.61998817      11.81113066        0       1.00000000      -0.00000071       0.00000155       0.00000059      -0.00000101       0.00000155      -0.00000077
H        2.80615599       1.62013527       2.77136699        0       1.00000000       0.00000092      -0.00000022      -0.00000092       0.00000586      -0.00000078       0.00000003
H        4.21916298       4.05018985      11.81113068        0       1.00000000       0.00000085      -0.00000002       0.00000109      -0.00000032      -0.00000190      -0.00000060
H        0.00000057       1.62013501       2.77136660        0       1.00000000      -0.00000023      -0.00000069      -0.00000041      -0.00000452       0.00000008      -0.00000049
18
Lattice="5.612310241546866 0.0 0.0 0.0 4.860403243099165 0.0 0.0 0.0 14.582432123328676" Properties=species:S:1:pos:R:3:tags:I:1:masses:R:1:momenta:R:3:forces:R:3 KEmax=23.26679191048647 iter=116792 volume=397.78090899293073 ns_energy=-11.638031575010723 last_walked_iter_clone=116419 energy=-11.638031575009371 stress="0.022599269100746198 -9.804732318060363e-10 1.8442872395351593e-08 -9.804732318060363e-10 0.02271370544307947 1.8162478062467924e-09 1.8442872395351593e-08 1.8162478062467924e-09 0.012286307834614478" pbc="T T F"
H        1.40307756       0.81006721       5.00000000        3       1.00000000       0.00000000       0.00000000       0.00000000       0.00000000       0.00000000       0.00000000
H        4.20923268       0.81006721       5.00000000        3       1.00000000       0.00000000       0.00000000       0.00000000       0.00000000       0.00000000       0.00000000
H        0.00000000       3.24026883       5.00000000        3       1.00000000       0.00000000       0.00000000       0.00000000       0.00000000       0.00000000       0.00000000
H        2.80615512       3.24026883       5.00000000        3       1.00000000       0.00000000       0.00000000       0.00000000       0.00000000       0.00000000       0.00000000
H        0.00000000       1.62013441       7.29121606        2       1.00000000       0.00000000       0.00000000       0.00000000       0.00000000       0.00000000       0.00000000
H        2.80615512       1.62013441       7.29121606        2       1.00000000       0.00000000       0.00000000       0.00000000       0.00000000       0.00000000       0.00000000
H        1.40307756       4.05033604       7.29121606        2       1.00000000       0.00000000       0.00000000       0.00000000       0.00000000       0.00000000       0.00000000
H        4.20923268       4.05033604       7.29121606        2       1.00000000       0.00000000       0.00000000       0.00000000       0.00000000       0.00000000       0.00000000
H        0.00000000       0.00000000       9.58243212        1       1.00000000       0.00000000       0.00000000       0.00000000       0.00000000       0.00000000       0.00000000
H        2.80615512       0.00000000       9.58243212        1       1.00000000       0.00000000       0.00000000       0.00000000       0.00000000       0.00000000       0.00000000
H        1.40307756       2.43020162       9.58243212        1       1.00000000       0.00000000       0.00000000       0.00000000       0.00000000       0.00000000       0.00000000
H        4.20923268       2.43020162       9.58243212        1       1.00000000       0.00000000       0.00000000       0.00000000       0.00000000       0.00000000       0.00000000
H        1.40307743       4.05033704       2.77136717        0       1.00000000       0.00000010       0.00000132       0.00000004       0.00000091       0.00000016       0.00000015
H        4.20923270       4.05033659       2.77136775        0       1.00000000      -0.00000030      -0.00000041       0.00000041      -0.00000154       0.00000081      -0.00000078
H        2.79622459       1.61998706      11.81113039        0       1.00000000       0.00000016      -0.00000035      -0.00000066      -0.00000101       0.00000155      -0.00000077
H        2.80615500       1.62013490       2.77136726        0       1.00000000      -0.00000007      -0.00000051      -0.00000029       0.00000586      -0.00000078       0.00000003
H        4.21916403       4.05018900      11.81113106        0       1.00000000      -0.00000000      -0.00000075      -0.00000097      -0.00000032      -0.00000190      -0.00000060
H        5.61231050       1.62013577       2.77136660        0       1.00000000      -0.00000006       0.00000025      -0.00000147      -0.00000452       0.00000008      -0.00000049
18
Lattice="5.612310241546866 0.0 0.0 0.0 4.860403243099165 0.0 0.0 0.0 14.582432123328676" Properties=species:S:1:pos:R:3:tags:I:1:masses:R:1:momenta:R:3:forces:R:3 KEmax=23.26679191048647 iter=116792 volume=397.78090899293073 ns_energy=-11.638031575010679 last_walked_iter_clone=116484 energy=-11.638031575009371 stress="0.022599269100746198 -9.804732318060363e-10 1.8442872395351593e-08 -9.804732318060363e-10 0.02271370544307947 1.8162478062467924e-09 1.8442872395351593e-08 1.8162478062467924e-09 0.012286307834614478" pbc="T T F"
H        1.40307756       0.81006721       5.00000000        3       1.00000000       0.00000000       0.00000000       0.00000000       0.00000000       0.00000000       0.00000000
H        4.20923268       0.81006721       5.00000000        3       1.00000000       0.00000000       0.00000000       0.00000000       0.00000000       0.00000000       0.00000000
H        0.00000000       3.24026883       5.00000000        3       1.00000000       0.00000000       0.00000000       0.00000000       0.00000000       0.00000000       0.00000000
H        2.80615512       3.24026883       5.00000000        3       1.00000000       0.00000000       0.00000000       0.00000000       0.00000000       0.00000000       0.00000000
H        0.00000000       1.62013441       7.29121606        2       1.00000000       0.00000000       0.00000000       0.00000000       0.00000000       0.00000000       0.00000000
H        2.80615512       1.62013441       7.29121606        2       1.00000000       0.00000000       0.00000000       0.00000000       0.00000000       0.00000000       0.00000000
H        1.40307756       4.05033604       7.29121606        2       1.00000000       0.00000000       0.00000000       0.00000000       0.00000000       0.00000000       0.00000000
H        4.20923268       4.05033604       7.29121606        2       1.00000000       0.00000000       0.00000000       0.00000000       0.00000000       0.00000000       0.00000000
H        0.00000000       0.00000000       9.58243212        1       1.00000000       0.00000000       0.00000000       0.00000000       0.00000000       0.00000000       0.00000000
H        2.80615512       0.00000000       9.58243212        1       1.00000000       0.00000000       0.00000000       0.00000000       0.00000000       0.00000000       0.00000000
H        1.40307756       2.43020162       9.58243212        1       1.00000000       0.00000000       0.00000000       0.00000000       0.00000000       0.00000000       0.00000000
H        4.20923268       2.43020162       9.58243212        1       1.00000000       0.00000000       0.00000000       0.00000000       0.00000000       0.00000000       0.00000000
H        1.40307762       4.05033598       2.77136653        0       1.00000000      -0.00000091      -0.00000036       0.00000086       0.00000091       0.00000016       0.00000015
H        4.20923260       4.05033611       2.77136730        0       1.00000000       0.00000047       0.00000018      -0.00000114      -0.00000154       0.00000081      -0.00000078
H        2.79622410       1.61998590      11.81113065        0       1.00000000      -0.00000049      -0.00000005      -0.00000053      -0.00000101       0.00000155      -0.00000077
H        2.80615502       1.62013431       2.77136668        0       1.00000000      -0.00000018       0.00000096      -0.00000062       0.00000586      -0.00000078       0.00000003
H        4.21916370       4.05018812      11.81113043        0       1.00000000       0.00000023      -0.00000125      -0.00000084      -0.00000032      -0.00000190      -0.00000060
H       -0.00000031       1.62013441       2.77136721        0       1.00000000       0.00000104       0.00000021      -0.00000065      -0.00000452       0.00000008      -0.00000049
18
Lattice="5.612310241546866 0.0 0.0 0.0 4.860403243099165 0.0 0.0 0.0 14.582432123328676" Properties=species:S:1:pos:R:3:tags:I:1:masses:R:1:momenta:R:3:forces:R:3 KEmax=23.26679191048647 iter=116792 volume=397.78090899293073 ns_energy=-11.63803157501058 last_walked_iter_clone=116342 energy=-11.638031575009371 stress="0.022599269100746198 -9.804732318060363e-10 1.8442872395351593e-08 -9.804732318060363e-10 0.02271370544307947 1.8162478062467924e-09 1.8442872395351593e-08 1.8162478062467924e-09 0.012286307834614478" pbc="T T F"
H        1.40307756       0.81006721       5.00000000        3       1.00000000       0.00000000       0.00000000       0.00000000       0.00000000       0.00000000       0.00000000
H        4.20923268       0.81006721       5.00000000        3       1.00000000       0.00000000       0.00000000       0.00000000       0.00000000       0.00000000       0.00000000
H        0.00000000       3.24026883       5.00000000        3       1.00000000       0.00000000       0.00000000       0.00000000       0.00000000       0.00000000       0.00000000
H        2.80615512       3.24026883       5.00000000        3       1.00000000       0.00000000       0.00000000       0.00000000       0.00000000       0.00000000       0.00000000
H        0.00000000       1.62013441       7.29121606        2       1.00000000       0.00000000       0.00000000       0.00000000       0.00000000       0.00000000       0.00000000
H        2.80615512       1.62013441       7.29121606        2       1.00000000       0.00000000       0.00000000       0.00000000       0.00000000       0.00000000       0.00000000
H        1.40307756       4.05033604       7.29121606        2       1.00000000       0.00000000       0.00000000       0.00000000       0.00000000       0.00000000       0.00000000
H        4.20923268       4.05033604       7.29121606        2       1.00000000       0.00000000       0.00000000       0.00000000       0.00000000       0.00000000       0.00000000
H        0.00000000       0.00000000       9.58243212        1       1.00000000       0.00000000       0.00000000       0.00000000       0.00000000       0.00000000       0.00000000
H        2.80615512       0.00000000       9.58243212        1       1.00000000       0.00000000       0.00000000       0.00000000       0.00000000       0.00000000       0.00000000
H        1.40307756       2.43020162       9.58243212        1       1.00000000       0.00000000       0.00000000       0.00000000       0.00000000       0.00000000       0.00000000
H        4.20923268       2.43020162       9.58243212        1       1.00000000       0.00000000       0.00000000       0.00000000       0.00000000       0.00000000       0.00000000
H        1.40307909       4.05033663       2.77136747        0       1.00000000      -0.00000080       0.00000007      -0.00000017       0.00000091       0.00000016       0.00000015
H        4.20923373       4.05033662       2.77136713        0       1.00000000      -0.00000082      -0.00000027       0.00000088      -0.00000154       0.00000081      -0.00000078
H        2.79622416       1.61998746      11.81113083        0       1.00000000       0.00000081       0.00000068       0.00000069      -0.00000101       0.00000155      -0.00000077
H        2.80615602       1.62013472       2.77136663        0       1.00000000      -0.00000059      -0.00000010      -0.00000007       0.00000586      -0.00000078       0.00000003
H        4.21916337       4.05018942      11.81113031        0       1.00000000       0.00000040      -0.00000076      -0.00000044      -0.00000032      -0.00000190      -0.00000060
H        0.00000077       1.62013476       2.77136663        0       1.00000000       0.00000089      -0.00000044      -0.00000105      -0.00000452       0.00000008      -0.00000049
18
Lattice="5.612310241546866 0.0 0.0 0.0 4.860403243099165 0.0 0.0 0.0 14.582432123328676" Properties=species:S:1:pos:R:3:tags:I:1:masses:R:1:momenta:R:3:forces:R:3 KEmax=23.26679191048647 iter=116792 volume=397.78090899293073 ns_energy=-11.63803157501057 last_walked_iter_clone=116350 energy=-11.638031575009371 stress="0.022599269100746198 -9.804732318060363e-10 1.8442872395351593e-08 -9.804732318060363e-10 0.02271370544307947 1.8162478062467924e-09 1.8442872395351593e-08 1.8162478062467924e-09 0.012286307834614478" pbc="T T F"
H        1.40307756       0.81006721       5.00000000        3       1.00000000       0.00000000       0.00000000       0.00000000       0.00000000       0.00000000       0.00000000
H        4.20923268       0.81006721       5.00000000        3       1.00000000       0.00000000       0.00000000       0.00000000       0.00000000       0.00000000       0.00000000
H        0.00000000       3.24026883       5.00000000        3       1.00000000       0.00000000       0.00000000       0.00000000       0.00000000       0.00000000       0.00000000
H        2.80615512       3.24026883       5.00000000        3       1.00000000       0.00000000       0.00000000       0.00000000       0.00000000       0.00000000       0.00000000
H        0.00000000       1.62013441       7.29121606        2       1.00000000       0.00000000       0.00000000       0.00000000       0.00000000       0.00000000       0.00000000
H        2.80615512       1.62013441       7.29121606        2       1.00000000       0.00000000       0.00000000       0.00000000       0.00000000       0.00000000       0.00000000
H        1.40307756       4.05033604       7.29121606        2       1.00000000       0.00000000       0.00000000       0.00000000       0.00000000       0.00000000       0.00000000
H        4.20923268       4.05033604       7.29121606        2       1.00000000       0.00000000       0.00000000       0.00000000       0.00000000       0.00000000       0.00000000
H        0.00000000       0.00000000       9.58243212        1       1.00000000       0.00000000       0.00000000       0.00000000       0.00000000       0.00000000       0.00000000
H        2.80615512       0.00000000       9.58243212        1       1.00000000       0.00000000       0.00000000       0.00000000       0.00000000       0.00000000       0.00000000
H        1.40307756       2.43020162       9.58243212        1       1.00000000       0.00000000       0.00000000       0.00000000       0.00000000       0.00000000       0.00000000
H        4.20923268       2.43020162       9.58243212        1       1.00000000       0.00000000       0.00000000       0.00000000       0.00000000       0.00000000       0.00000000
H        1.40307760       4.05033624       2.77136708        0       1.00000000       0.00000057       0.00000024       0.00000097       0.00000091       0.00000016       0.00000015
H        4.20923324       4.05033573       2.77136759        0       1.00000000       0.00000053      -0.00000037       0.00000026      -0.00000154       0.00000081      -0.00000078
H        2.79622455       1.61998641      11.81113032        0       1.00000000       0.00000092      -0.00000061      -0.00000042      -0.00000101       0.00000155      -0.00000077