18
Lattice="5.612310241546866 0.0 0.0 0.0 4.860403243099165 0.0 0.0 0.0 14.582432123328676" Properties=species:S:1:pos:R:3:tags:I:1:masses:R:1:momenta:R:3 KEmax=23.26679191048647 iter=99 volume=397.78090899293073 ns_energy=19147.409879718176 ns_P=0.0 config_n_global=99 ns_KE=6.515756823244671 pbc="T T F"
H        1.40307756       0.81006721       5.00000000        3       1.00000000       0.00000000       0.00000000       0.00000000
H        4.20923268       0.81006721       5.00000000        3       1.00000000       0.00000000       0.00000000       0.00000000
H        0.00000000       3.24026883       5.00000000        3       1.00000000       0.00000000       0.00000000       0.00000000
H        2.80615512       3.24026883       5.00000000        3       1.00000000       0.00000000       0.00000000       0.00000000
H        0.00000000       1.62013441       7.29121606        2       1.00000000       0.00000000       0.00000000       0.00000000
H        2.80615512       1.62013441       7.29121606        2       1.00000000       0.00000000       0.00000000       0.00000000
H        1.40307756       4.05033604       7.29121606        2       1.00000000       0.00000000       0.00000000       0.00000000
H        4.20923268       4.05033604       7.29121606        2       1.00000000       0.00000000       0.00000000       0.00000000
H        0.00000000       0.00000000       9.58243212        1       1.00000000       0.00000000       0.00000000       0.00000000
H        2.80615512       0.00000000       9.58243212        1       1.00000000       0.00000000       0.00000000       0.00000000
H        1.40307756       2.43020162       9.58243212        1       1.00000000       0.00000000       0.00000000       0.00000000
H        4.20923268       2.43020162       9.58243212        1       1.00000000       0.00000000       0.00000000       0.00000000
H        1.81431490       4.68632996       2.80010438        0       1.00000000      -0.39181391      -1.15842053      -0.16236690
H        4.38454534       3.82563228       2.55957979        0       1.00000000       1.07314162       0.93690791      -0.03614201
H        2.31789783       4.27263736      11.70624792        0       1.00000000       0.88120475      -0.35654632      -0.70638081
H        0.40192445       0.32709899       2.14374548        0       1.00000000      -0.92269271      -1.18449320       1.01005294
H        2.87098170       2.35179388      12.33412315        0       1.00000000      -0.93443958       1.00008288      -0.06097630
H        0.95447765       0.89759347       2.78476103        0       1.00000000       1.13426015       0.45059252       1.19795825
18
Lattice="5.612310241546866 0.0 0.0 0.0 4.860403243099165 0.0 0.0 0.0 14.582432123328676" Properties=species:S:1:pos:R:3:tags:I:1:masses:R:1:momenta:R:3 KEmax=23.26679191048647 iter=199 volume=397.78090899293073 ns_energy=1923.3137356839904 last_walked_iter_clone=170 ns_P=0.0 config_n_global=199 ns_KE=21.991832918001563 pbc="T T F"
H        1.40307756       0.81006721       5.00000000        3       1.00000000       0.00000000       0.00000000       0.00000000
H        4.20923268       0.81006721       5.00000000        3       1.00000000       0.00000000       0.00000000       0.00000000
H        0.00000000       3.24026883       5.00000000        3       1.00000000       0.00000000       0.00000000       0.00000000
H        2.80615512       3.24026883       5.00000000        3       1.00000000       0.00000000       0.00000000       0.00000000
H        0.00000000       1.62013441       7.29121606        2       1.00000000       0.00000000       0.00000000       0.00000000
H        2.80615512       1.62013441       7.29121606        2       1.00000000       0.00000000       0.00000000       0.00000000
H        1.40307756       4.05033604       7.29121606        2       1.00000000       0.00000000       0.00000000       0.00000000
H        4.20923268       4.05033604       7.29121606        2       1.00000000       0.00000000       0.00000000       0.00000000
H        0.00000000       0.00000000       9.58243212        1       1.00000000       0.00000000       0.00000000       0.00000000
H        2.80615512       0.00000000       9.58243212        1       1.00000000       0.00000000       0.00000000       0.00000000
H        1.40307756       2.43020162       9.58243212        1       1.00000000       0.00000000       0.00000000       0.00000000
H        4.20923268       2.43020162       9.58243212        1       1.00000000       0.00000000       0.00000000       0.00000000
H        2.47025075       0.55173634       2.39719257        0       1.00000000       1.45712724       1.24434459       0.35159918
H        1.15726119       0.60668522       2.59966034        0       1.00000000      -0.44559168      -0.87382376      -0.41187663
H        0.81591604       0.37342842      11.77777965        0       1.00000000      -2.43911605      -0.12585836      -2.14791818
H        3.65167999       3.27636350       2.89279005        0       1.00000000      -0.33524688      -2.17707946      -0.61239938
H        2.34354294       3.96088676      11.84544164        0       1.00000000      -0.46635741      -1.89769696       0.35105294
H        3.67353045       4.49533035       2.43609032        0       1.00000000      -0.44481719       0.87276297       4.28361194
18
Lattice="5.612310241546866 0.0 0.0 0.0 4.860403243099165 0.0 0.0 0.0 14.582432123328676" Properties=species:S:1:pos:R:3:tags:I:1:masses:R:1:momenta:R:3 KEmax=23.26679191048647 iter=299 volume=397.78090899293073 ns_energy=259.48718369041825 last_walked_iter_clone=276 ns_P=0.0 config_n_global=299 ns_KE=21.388919562130933 pbc="T T F"
H        1.40307756       0.81006721       5.00000000        3       1.00000000       0.00000000       0.00000000       0.00000000
H        4.20923268       0.81006721       5.00000000        3       1.00000000       0.00000000       0.00000000       0.00000000
H        0.00000000       3.24026883       5.00000000        3       1.00000000       0.00000000       0.00000000       0.00000000
H        2.80615512       3.24026883       5.00000000        3       1.00000000       0.00000000       0.00000000       0.00000000
H        0.00000000       1.62013441       7.29121606        2       1.00000000       0.00000000       0.00000000       0.00000000
H        2.80615512       1.62013441       7.29121606        2       1.00000000       0.00000000       0.00000000       0.00000000
H        1.40307756       4.05033604       7.29121606        2       1.00000000       0.00000000       0.00000000       0.00000000
H        4.20923268       4.05033604       7.29121606        2       1.00000000       0.00000000       0.00000000       0.00000000
H        0.00000000       0.00000000       9.58243212        1       1.00000000       0.00000000       0.00000000       0.00000000
H        2.80615512       0.00000000       9.58243212        1       1.00000000       0.00000000       0.00000000       0.00000000
H        1.40307756       2.43020162       9.58243212        1       1.00000000       0.00000000       0.00000000       0.00000000
H        4.20923268       2.43020162       9.58243212        1       1.00000000       0.00000000       0.00000000       0.00000000
H        1.38869007       2.94786545       2.26288101        0       1.00000000      -0.07173633       0.66610016      -0.38499383
H        0.05099274       4.14898497       2.64657214        0       1.00000000       3.49023318      -2.67775394       0.19320434
H        0.97930737       0.13436013      12.44280783        0       1.00000000      -1.38206999       0.26111930       1.38557354
H        2.67384258       2.18986107       2.86727206        0       1.00000000      -0.29099557      -0.37490834      -0.70956810
H        4.84531278       2.39591068      12.09117691        0       1.00000000      -0.94073728       0.17940797      -0.95703684
H        4.34863461       0.02722647       2.72648215        0       1.00000000      -2.77856058      -1.07013307       2.73237043
18
Lattice="5.612310241546866 0.0 0.0 0.0 4.860403243099165 0.0 0.0 0.0 14.582432123328676" Properties=species:S:1:pos:R:3:tags:I:1:masses:R:1:momenta:R:3 KEmax=23.26679191048647 iter=399 volume=397.78090899293073 ns_energy=67.75750387076702 last_walked_iter_clone=377 ns_P=0.0 config_n_global=399 ns_KE=22.64105769304235 pbc="T T F"
H        1.40307756       0.81006721       5.00000000        3       1.00000000       0.00000000       0.00000000       0.00000000
H        4.20923268       0.81006721       5.00000000        3       1.00000000       0.00000000       0.00000000       0.00000000
H        0.00000000       3.24026883       5.00000000        3       1.00000000       0.00000000       0.00000000       0.00000000
H        2.80615512       3.24026883       5.00000000        3       1.00000000       0.00000000       0.00000000       0.00000000
H        0.00000000       1.62013441       7.29121606        2       1.00000000       0.00000000       0.00000000       0.00000000
H        2.80615512       1.62013441       7.29121606        2       1.00000000       0.00000000       0.00000000       0.00000000
H        1.40307756       4.05033604       7.29121606        2       1.00000000       0.00000000       0.00000000       0.00000000
H        4.20923268       4.05033604       7.29121606        2       1.00000000       0.00000000       0.00000000       0.00000000
H        0.00000000       0.00000000       9.58243212        1       1.00000000       0.00000000       0.00000000       0.00000000
H        2.80615512       0.00000000       9.58243212        1       1.00000000       0.00000000       0.00000000       0.00000000
H        1.40307756       2.43020162       9.58243212        1       1.00000000       0.00000000       0.00000000       0.00000000
H        4.20923268       2.43020162       9.58243212        1       1.00000000       0.00000000       0.00000000       0.00000000
H        0.36763703       4.40193510       2.25477047        0       1.00000000       2.58316025      -1.56093062      -1.38401542
H        2.76481981       0.23111943       2.80214383        0       1.00000000       0.80841953       0.00338896      -2.84012046
H        5.15787923       3.56945337      11.62498725        0       1.00000000       1.24152644      -0.60935632      -1.13426931
H        4.29311890       2.05080202       2.33511815        0       1.00000000       1.90945253      -1.56015994      -2.05471461
H        3.41031940       4.35155156      12.55326525        0       1.00000000      -2.30569679       1.68486532      -1.36375137
H        1.32219964       1.07782078       2.54834781        0       1.00000000      -1.34763642       0.44386784       0.09142375
18
Lattice="5.612310241546866 0.0 0.0 0.0 4.860403243099165 0.0 0.0 0.0 14.582432123328676" Properties=species:S:1:pos:R:3:tags:I:1:masses:R:1:momenta:R:3 KEmax=23.26679191048647 iter=499 volume=397.78090899293073 ns_energy=32.220965331828985 last_walked_iter_clone=480 ns_P=0.0 config_n_global=499 ns_KE=18.10303326236095 pbc="T T F"
H        1.40307756       0.81006721       5.00000000        3       1.00000000       0.00000000       0.00000000       0.00000000
H        4.20923268       0.81006721       5.00000000        3       1.00000000       0.00000000       0.00000000       0.00000000
H        0.00000000       3.24026883       5.00000000        3       1.00000000       0.00000000       0.00000000       0.00000000
H        2.80615512       3.24026883       5.00000000        3       1.00000000       0.00000000       0.00000000       0.00000000
H        0.00000000       1.62013441       7.29121606        2       1.00000000       0.00000000       0.00000000       0.00000000
H        2.80615512       1.62013441       7.29121606        2       1.00000000       0.00000000       0.00000000       0.00000000
H        1.40307756       4.05033604       7.29121606        2       1.00000000       0.00000000       0.00000000       0.00000000
H        4.20923268       4.05033604       7.29121606        2       1.00000000       0.00000000       0.00000000       0.00000000
H        0.00000000       0.00000000       9.58243212        1       1.00000000       0.00000000       0.00000000       0.00000000
H        2.80615512       0.00000000       9.58243212        1       1.00000000       0.00000000       0.00000000       0.00000000
H        1.40307756       2.43020162       9.58243212        1       1.00000000       0.00000000       0.00000000       0.00000000
H        4.20923268       2.43020162       9.58243212        1       1.00000000       0.00000000       0.00000000       0.00000000
H        0.37147157       2.48498954       2.95550003        0       1.00000000      -1.32238763      -2.81348114      -0.18009954
H        4.08891860       2.88394533       2.09819565        0       1.00000000      -2.65239496       2.03669614      -0.54008941
H        2.86865434       4.25457707      12.19122384        0       1.00000000       0.41332338      -1.63847736      -1.02505847
H        2.42269772       0.41045059       2.17084696        0       1.00000000       0.70364238       2.27071327      -0.96609914
H        0.34440706       2.06873790      12.63883787        0       1.00000000      -0.63989072      -0.11969640       1.85546978
H        0.86151941       4.21869360       2.77950839        0       1.00000000      -0.73749343       0.31681960      -0.18056580
18
Lattice="5.612310241546866 0.0 0.0 0.0 4.860403243099165 0.0 0.0 0.0 14.582432123328676" Properties=species:S:1:pos:R:3:tags:I:1:masses:R:1:momenta:R:3 KEmax=23.26679191048647 iter=599 volume=397.78090899293073 ns_energy=19.781305323972187 last_walked_iter_clone=416 ns_P=0.0 config_n_global=599 ns_KE=21.962122441939353 pbc="T T F"
H        1.40307756       0.81006721       5.00000000        3       1.00000000       0.00000000       0.00000000       0.00000000
H        4.20923268       0.81006721       5.00000000        3       1.00000000       0.00000000       0.00000000       0.00000000
H        0.00000000       3.24026883       5.00000000        3       1.00000000       0.00000000       0.00000000       0.00000000
H        2.80615512       3.24026883       5.00000000        3       1.00000000       0.00000000       0.00000000       0.00000000
H        0.00000000       1.62013441       7.29121606        2       1.00000000       0.00000000       0.00000000       0.00000000
H        2.80615512       1.62013441       7.29121606        2       1.00000000       0.00000000       0.00000000       0.00000000
H        1.40307756       4.05033604       7.29121606        2       1.00000000       0.00000000       0.00000000       0.00000000
H        4.20923268       4.05033604       7.29121606        2       1.00000000       0.00000000       0.00000000       0.00000000
H        0.00000000       0.00000000       9.58243212        1       1.00000000       0.00000000       0.00000000       0.00000000
H        2.80615512       0.00000000       9.58243212        1       1.00000000       0.00000000       0.00000000       0.00000000
H        1.40307756       2.43020162       9.58243212        1       1.00000000       0.00000000       0.00000000       0.00000000
H        4.20923268       2.43020162       9.58243212        1       1.00000000       0.00000000       0.00000000       0.00000000
H        3.30024571       3.98378172       2.11822921        0       1.00000000       2.67759988      -0.26026690       2.65845695
H        1.96012992       1.08214422       2.57556859        0       1.00000000      -1.35636372       4.46591816      -0.89705976
H        4.13006165       1.35575464      12.27736174        0       1.00000000       0.26266621       0.07964765       0.13968486
H        3.86497428       1.93868751       2.07928895        0       1.00000000      -1.76845342       0.71781423      -0.16325407
H        2.21542231       0.37203566      11.95860886        0       1.00000000       0.01293273      -0.66999475      -1.27274632
H        5.41451651       0.72261191       3.25621837        0       1.00000000       0.16987311       0.39238386       1.00735126
18
Lattice="5.612310241546866 0.0 0.0 0.0 4.860403243099165 0.0 0.0 0.0 14.582432123328676" Properties=species:S:1:pos:R:3:tags:I:1:masses:R:1:momenta:R:3 KEmax=23.26679191048647 iter=699 volume=397.78090899293073 ns_energy=14.866622205948543 last_walked_iter_clone=675 ns_P=0.0 config_n_global=699 ns_KE=22.46931957182526 pbc="T T F"
H        1.40307756       0.81006721       5.00000000        3       1.00000000       0.00000000       0.00000000       0.00000000
H        4.20923268       0.81006721       5.00000000        3       1.00000000       0.00000000       0.00000000       0.00000000
H        0.00000000       3.24026883       5.00000000        3       1.00000000       0.00000000       0.00000000       0.00000000
H        2.80615512       3.24026883       5.00000000        3       1.00000000       0.00000000       0.00000000       0.00000000
H        0.00000000       1.62013441       7.29121606        2       1.00000000       0.00000000       0.00000000       0.00000000
H        2.80615512       1.62013441       7.29121606        2       1.00000000       0.00000000       0.00000000       0.00000000
H        1.40307756       4.05033604       7.29121606        2       1.00000000       0.00000000       0.00000000       0.00000000
H        4.20923268       4.05033604       7.29121606        2       1.00000000       0.00000000       0.00000000       0.00000000
H        0.00000000       0.00000000       9.58243212        1       1.00000000       0.00000000       0.00000000       0.00000000
H        2.80615512       0.00000000       9.58243212        1       1.00000000       0.00000000       0.00000000       0.00000000
H        1.40307756       2.43020162       9.58243212        1       1.00000000       0.00000000       0.00000000       0.00000000
H        4.20923268       2.43020162       9.58243212        1       1.00000000       0.00000000       0.00000000       0.00000000
H        0.47975864       3.77904912       0.76695203        0       1.00000000      -0.33121352       0.81126330       1.04606657
H        3.30119309       0.11880952       1.14107715        0       1.00000000      -0.87274090      -0.14746643       0.80820749
H        5.66644534       4.81403285      12.77741261        0       1.00000000       3.23202385      -1.79260864      -3.06811438
H        2.42395962       2.89686530       1.93105052        0       1.00000000      -1.13870270       1.32314316      -0.28754353
H        1.84325878       1.61835760      13.01322809        0       1.00000000      -2.39533754       0.54236043      -0.96854567
H        0.78867460       4.56174566       2.77699863        0       1.00000000      -2.34587004      -1.60248685      -0.62942868
18
Lattice="5.612310241546866 0.0 0.0 0.0 4.860403243099165 0.0 0.0 0.0 14.582432123328676" Properties=species:S:1:pos:R:3:tags:I:1:masses:R:1:momenta:R:3 KEmax=23.26679191048647 iter=799 volume=397.78090899293073 ns_energy=12.697109732219744 last_walked_iter_clone=663 ns_P=0.0 config_n_global=799 ns_KE=21.305693194544496 pbc="T T F"
H        1.40307756       0.81006721       5.00000000        3       1.00000000       0.00000000       0.00000000       0.00000000
H        4.20923268       0.81006721       5.00000000        3       1.00000000       0.00000000       0.00000000       0.00000000
H        0.00000000       3.24026883       5.00000000        3       1.00000000       0.00000000       0.00000000       0.00000000
H        2.80615512       3.24026883       5.00000000        3       1.00000000       0.00000000       0.00000000       0.00000000
H        0.00000000       1.62013441       7.29121606        2       1.00000000       0.00000000       0.00000000       0.00000000
H        2.80615512       1.62013441       7.29121606        2       1.00000000       0.00000000       0.00000000       0.00000000
H        1.40307756       4.05033604       7.29121606        2       1.00000000       0.00000000       0.00000000       0.00000000
H        4.20923268       4.05033604       7.29121606        2       1.00000000       0.00000000       0.00000000       0.00000000
H        0.00000000       0.00000000       9.58243212        1       1.00000000       0.00000000       0.00000000       0.00000000
H        2.80615512       0.00000000       9.58243212        1       1.00000000       0.00000000       0.00000000       0.00000000
H        1.40307756       2.43020162       9.58243212        1       1.00000000       0.00000000       0.00000000       0.00000000
H        4.20923268       2.43020162       9.58243212        1       1.00000000       0.00000000       0.00000000       0.00000000
H        5.13679335       1.45680100       2.68322040        0       1.00000000       0.80321534      -0.48554506       1.35949677
H        3.37537886       0.09075783       1.55159610        0       1.00000000       3.01027309      -1.21682274       1.05463311
H        2.27617128       4.59853362      12.68075637        0       1.00000000      -1.93783603       1.64703122       0.14580709
H        1.57938442       2.58349287       0.18641453        0       1.00000000       1.95224496      -0.22800343       1.41699939
H        1.13844785       1.28724064      14.26277685        0       1.00000000      -0.52255320      -1.80438191      -3.11055541
H        0.34131119       4.21399857       2.61509353        0       1.00000000       0.30472963      -0.58717895      -1.49172047
18
Lattice="5.612310241546866 0.0 0.0 0.0 4.860403243099165 0.0 0.0 0.0 14.582432123328676" Properties=species:S:1:pos:R:3:tags:I:1:masses:R:1:momenta:R:3 KEmax=23.26679191048647 iter=899 volume=397.78090899293073 ns_energy=11.411405328815354 last_walked_iter_clone=791 ns_P=0.0 config_n_global=899 ns_KE=15.874171301575329 pbc="T T F"
H        1.40307756       0.81006721       5.00000000        3       1.00000000       0.00000000       0.00000000       0.00000000
H        4.20923268       0.81006721       5.00000000        3       1.00000000       0.00000000       0.00000000       0.00000000
H        0.00000000       3.24026883       5.00000000        3       1.00000000       0.00000000       0.00000000       0.00000000
H        2.80615512       3.24026883       5.00000000        3       1.00000000       0.00000000       0.00000000       0.00000000
H        0.00000000       1.62013441       7.29121606        2       1.00000000       0.00000000       0.00000000       0.00000000
H        2.80615512       1.62013441       7.29121606        2       1.00000000       0.00000000       0.00000000       0.00000000
H        1.40307756       4.05033604       7.29121606        2       1.00000000       0.00000000       0.00000000       0.00000000
H        4.20923268       4.05033604       7.29121606        2       1.00000000       0.00000000       0.00000000       0.00000000
H        0.00000000       0.00000000       9.58243212        1       1.00000000       0.00000000       0.00000000       0.00000000
H        2.80615512       0.00000000       9.58243212        1       1.00000000       0.00000000       0.00000000       0.00000000
H        1.40307756       2.43020162       9.58243212        1       1.00000000       0.00000000       0.00000000       0.00000000
H        4.20923268       2.43020162       9.58243212        1       1.00000000       0.00000000       0.00000000       0.00000000
H        1.25595275       1.68843734       0.94682544        0       1.00000000      -0.98300776       1.35144822      -0.54572454
H        1.52279208       3.94844446       3.18199897        0       1.00000000      -0.48652442      -2.48206148      -0.75956443
H        4.71480730       0.63006503      12.15649780        0       1.00000000      -0.84553558      -0.13827557      -2.16199864
H        4.24984813       2.03278191       3.02543991        0       1.00000000       1.01634675       1.28116798      -1.18081391
H        1.39236008       3.87561917      13.47790740        0       1.00000000       0.00373324       2.03544090      -0.98920811
H        4.48311750       0.58994875       1.66443222        0       1.00000000       1.83769412      -0.70689893       1.79114017
18
Lattice="5.612310241546866 0.0 0.0 0.0 4.860403243099165 0.0 0.0 0.0 14.582432123328676" Properties=species:S:1:pos:R:3:tags:I:1:masses:R:1:momenta:R:3 KEmax=23.26679191048647 iter=999 volume=397.78090899293073 ns_energy=10.193537009106507 last_walked_iter_clone=937 ns_P=0.0 config_n_global=999 ns_KE=10.609167378515874 pbc="T T F"
H        1.40307756       0.81006721       5.00000000        3       1.00000000       0.00000000       0.00000000       0.00000000
H        4.20923268       0.81006721       5.00000000        3       1.00000000       0.00000000       0.00000000       0.00000000
H        0.00000000       3.24026883       5.00000000        3       1.00000000       0.00000000       0.00000000       0.00000000
H        2.80615512       3.24026883       5.00000000        3       1.00000000       0.00000000       0.00000000       0.00000000
H        0.00000000       1.62013441       7.29121606        2       1.00000000       0.00000000       0.00000000       0.00000000
H        2.80615512       1.62013441       7.29121606        2       1.00000000       0.00000000       0.00000000       0.00000000
H        1.40307756       4.05033604       7.29121606        2       1.00000000       0.00000000       0.00000000       0.00000000
H        4.20923268       4.05033604       7.29121606        2       1.00000000       0.00000000       0.00000000       0.00000000
H        0.00000000       0.00000000       9.58243212        1       1.00000000       0.00000000       0.00000000       0.00000000
H        2.80615512       0.00000000       9.58243212        1       1.00000000       0.00000000       0.00000000       0.00000000
H        1.40307756       2.43020162       9.58243212        1       1.00000000       0.00000000       0.00000000       0.00000000
H        4.20923268       2.43020162       9.58243212        1       1.00000000       0.00000000       0.00000000       0.00000000
H        0.39823152       4.82911431       3.37162561        0       1.00000000      -0.71112056       0.94001947      -0.75064412
H        3.60186338       2.50723366       1.27358099        0       1.00000000      -0.96525510       1.92571412      -0.82606719
H        0.04852916       3.04856768      11.75517363        0       1.00000000       2.66035502      -1.05684207      -0.29321106
H        0.06470305       2.29995901       1.23653608        0       1.00000000      -0.04987532       0.13373401       2.11104662
H        3.52784592       1.28778931      12.70348323        0       1.00000000       0.66901582       0.53619984       0.18573821
H        1.41899966       3.78944253       1.84070998        0       1.00000000       0.15620728      -0.62454636      -0.04174892
18
Lattice="5.612310241546866 0.0 0.0 0.0 4.860403243099165 0.0 0.0 0.0 14.582432123328676" Properties=species:S:1:pos:R:3:tags:I:1:masses:R:1:momenta:R:3 KEmax=23.26679191048647 iter=1099 volume=397.78090899293073 ns_energy=9.029526831869687 last_walked_iter_clone=985 ns_P=0.0 config_n_global=1099 ns_KE=17.963114051643693 pbc="T T F"
H        1.40307756       0.81006721       5.00000000        3       1.00000000       0.00000000       0.00000000       0.00000000
H        4.20923268       0.81006721       5.00000000        3       1.00000000       0.00000000       0.00000000       0.00000000
H        0.00000000       3.24026883       5.00000000        3       1.00000000       0.00000000       0.00000000       0.00000000
H        2.80615512       3.24026883       5.00000000        3       1.00000000       0.00000000       0.00000000       0.00000000
H        0.00000000       1.62013441       7.29121606        2       1.00000000       0.00000000       0.00000000       0.00000000
H        2.80615512       1.62013441       7.29121606        2       1.00000000       0.00000000       0.00000000       0.00000000
H        1.40307756       4.05033604       7.29121606        2       1.00000000       0.00000000       0.00000000       0.00000000
H        4.20923268       4.05033604       7.29121606        2       1.00000000       0.00000000       0.00000000       0.00000000
H        0.00000000       0.00000000       9.58243212        1       1.00000000       0.00000000       0.00000000       0.00000000
H        2.80615512       0.00000000       9.58243212        1       1.00000000       0.00000000       0.00000000       0.00000000
H        1.40307756       2.43020162       9.58243212        1       1.00000000       0.00000000       0.00000000       0.00000000
H        4.20923268       2.43020162       9.58243212        1       1.00000000       0.00000000       0.00000000       0.00000000
H        1.88028635       2.88389864       0.99119887        0       1.00000000       0.50567557      -0.95955428      -0.93808820
H        5.04417641       4.18867851       2.37110396        0       1.00000000       0.77078391      -2.25384053      -0.92228535
H        2.34342826       2.10651173      12.22302671        0       1.00000000       0.49962823       1.15263571       1.08401662
H        2.30294635       0.10394559       2.71758094        0       1.00000000       0.24929893       0.84755819       1.69151836
H        3.60262078       0.07147344      12.83288282        0       1.00000000       3.37702823      -0.64136943       1.80186702
H        4.26185728       1.42033690       2.43869475        0       1.00000000       0.00971999      -2.28713161       0.81040600
18
Lattice="5.612310241546866 0.0 0.0 0.0 4.860403243099165 0.0 0.0 0.0 14.582432123328676" Properties=species:S:1:pos:R:3:tags:I:1:masses:R:1:momenta:R:3 KEmax=23.26679191048647 iter=1199 volume=397.78090899293073 ns_energy=8.139272703657465 last_walked_iter_clone=1075 ns_P=0.0 config_n_global=1199 ns_KE=15.270294608536862 pbc="T T F"