19
Lattice="5.612310241546866 0.0 0.0 0.0 4.860403243099165 0.0 0.0 0.0 44.58243212332868" Properties=species:S:1:pos:R:3:tags:I:1:masses:R:1:momenta:R:3:forces:R:3 KEmax=24.559391461069055 iter=50175 volume=1216.1236359717223 set_wall=T ns_energy=-12.530985864948207 last_walked_iter_clone=50173 energy=-12.532898970334132 stress="0.023654508575098692 0.00014848539573082643 -0.0002464618515992933 0.00014848539573082643 0.023614941396452954 8.4887580036938e-06 -0.0002464618515992933 8.4887580036938e-06 0.011596842976873915" pbc="T T F"
H        1.40307756       0.81006721      20.00000000        3       1.00000000       0.00000000       0.00000000       0.00000000       0.00000000       0.00000000       0.00000000
H        4.20923268       0.81006721      20.00000000        3       1.00000000       0.00000000       0.00000000       0.00000000       0.00000000       0.00000000       0.00000000
H        0.00000000       3.24026883      20.00000000        3       1.00000000       0.00000000       0.00000000       0.00000000       0.00000000       0.00000000       0.00000000
H        2.80615512       3.24026883      20.00000000        3       1.00000000       0.00000000       0.00000000       0.00000000       0.00000000       0.00000000       0.00000000
H        0.00000000       1.62013441      22.29121606        2       1.00000000       0.00000000       0.00000000       0.00000000       0.00000000       0.00000000       0.00000000
H        2.80615512       1.62013441      22.29121606        2       1.00000000       0.00000000       0.00000000       0.00000000       0.00000000       0.00000000       0.00000000
H        1.40307756       4.05033604      22.29121606        2       1.00000000       0.00000000       0.00000000       0.00000000       0.00000000       0.00000000       0.00000000
H        4.20923268       4.05033604      22.29121606        2       1.00000000       0.00000000       0.00000000       0.00000000       0.00000000       0.00000000       0.00000000
H        0.00000000       0.00000000      24.58243212        1       1.00000000       0.00000000       0.00000000       0.00000000       0.00000000       0.00000000       0.00000000
H        2.80615512       0.00000000      24.58243212        1       1.00000000       0.00000000       0.00000000       0.00000000       0.00000000       0.00000000       0.00000000
H        1.40307756       2.43020162      24.58243212        1       1.00000000       0.00000000       0.00000000       0.00000000       0.00000000       0.00000000       0.00000000
H        4.20923268       2.43020162      24.58243212        1       1.00000000       0.00000000       0.00000000       0.00000000       0.00000000       0.00000000       0.00000000
H        0.00830696       1.63390528      26.81012661        0       1.00000000      -0.01969688      -0.01648687      -0.00080119       0.01068005      -0.02953776      -0.01443584
H        2.79474704       1.61161703      26.79800070        0       1.00000000      -0.00644795       0.01025903      -0.01551605       0.02202786      -0.07008956      -0.03696464
H        5.58932525       4.83794971      29.00728820        0       1.00000000       0.02635346       0.00952600       0.00578427       0.00921210       0.00018896       0.02737799
H        1.40372036       4.03110877      26.79376973        0       1.00000000       0.00821116       0.00547919       0.01239698       0.01568393       0.08172036       0.03824286
H        2.78822030       4.82686589      29.03281336        0       1.00000000       0.00497234      -0.02700191       0.00376764      -0.02038797      -0.00532334      -0.04909640
H        4.19569403       4.04957035      26.78273349        0       1.00000000      -0.02348733       0.02640024      -0.00097453      -0.03009910       0.02609216      -0.00045785
H        4.18924050       2.39643932      29.02087190        0       1.00000000      -0.00126656       0.01198035      -0.01850602       0.01551505       0.00112627       0.02260284
19
Lattice="5.612310241546866 0.0 0.0 0.0 4.860403243099165 0.0 0.0 0.0 44.58243212332868" Properties=species:S:1:pos:R:3:tags:I:1:masses:R:1:momenta:R:3:forces:R:3 KEmax=24.559391461069055 iter=50175 volume=1216.1236359717223 set_wall=T ns_energy=-12.530784574026287 last_walked_iter_clone=50086 energy=-12.532898970334132 stress="0.023654508575098692 0.00014848539573082643 -0.0002464618515992933 0.00014848539573082643 0.023614941396452954 8.4887580036938e-06 -0.0002464618515992933 8.4887580036938e-06 0.011596842976873915" pbc="T T F"
H        1.40307756       0.81006721      20.00000000        3       1.00000000       0.00000000       0.00000000       0.00000000       0.00000000       0.00000000       0.00000000
H        4.20923268       0.81006721      20.00000000        3       1.00000000       0.00000000       0.00000000       0.00000000       0.00000000       0.00000000       0.00000000
H        0.00000000       3.24026883      20.00000000        3       1.00000000       0.00000000       0.00000000       0.00000000       0.00000000       0.00000000       0.00000000
H        2.80615512       3.24026883      20.00000000        3       1.00000000       0.00000000       0.00000000       0.00000000       0.00000000       0.00000000       0.00000000
H        0.00000000       1.62013441      22.29121606        2       1.00000000       0.00000000       0.00000000       0.00000000       0.00000000       0.00000000       0.00000000
H        2.80615512       1.62013441      22.29121606        2       1.00000000       0.00000000       0.00000000       0.00000000       0.00000000       0.00000000       0.00000000
H        1.40307756       4.05033604      22.29121606        2       1.00000000       0.00000000       0.00000000       0.00000000       0.00000000       0.00000000       0.00000000
H        4.20923268       4.05033604      22.29121606        2       1.00000000       0.00000000       0.00000000       0.00000000       0.00000000       0.00000000       0.00000000
H        0.00000000       0.00000000      24.58243212        1       1.00000000       0.00000000       0.00000000       0.00000000       0.00000000       0.00000000       0.00000000
H        2.80615512       0.00000000      24.58243212        1       1.00000000       0.00000000       0.00000000       0.00000000       0.00000000       0.00000000       0.00000000
H        1.40307756       2.43020162      24.58243212        1       1.00000000       0.00000000       0.00000000       0.00000000       0.00000000       0.00000000       0.00000000
H        4.20923268       2.43020162      24.58243212        1       1.00000000       0.00000000       0.00000000       0.00000000       0.00000000       0.00000000       0.00000000
H        0.02797841       1.61145018      26.80402873        0       1.00000000      -0.00306726      -0.00035938       0.03128416       0.01068005      -0.02953776      -0.01443584
H        2.82448580       1.60789968      26.79962486        0       1.00000000       0.00825027      -0.03080433       0.00832676       0.02202786      -0.07008956      -0.03696464
H        0.02671015       4.85826146      29.01881513        0       1.00000000       0.02187380      -0.01281423       0.01290676       0.00921210       0.00018896       0.02737799
H        1.41547803       4.02167097      26.80812339        0       1.00000000      -0.00651170      -0.00199471       0.00534044       0.01568393       0.08172036       0.03824286
H        2.83751425       4.86430443      29.03169097        0       1.00000000      -0.02003432       0.00643660       0.01181160      -0.02038797      -0.00532334      -0.04909640
H        4.22076489       4.03381159      26.79230137        0       1.00000000      -0.00226828      -0.01727613      -0.01236426      -0.03009910       0.02609216      -0.00045785
H        4.22823791       2.41996605      29.03575061        0       1.00000000      -0.00678409      -0.02061541      -0.00920131       0.01551505       0.00112627       0.02260284
19
Lattice="5.612310241546866 0.0 0.0 0.0 4.860403243099165 0.0 0.0 0.0 44.58243212332868" Properties=species:S:1:pos:R:3:tags:I:1:masses:R:1:momenta:R:3:forces:R:3 KEmax=24.559391461069055 iter=50175 volume=1216.1236359717223 set_wall=T ns_energy=-12.530902317924218 last_walked_iter_clone=50083 energy=-12.532898970334132 stress="0.023654508575098692 0.00014848539573082643 -0.0002464618515992933 0.00014848539573082643 0.023614941396452954 8.4887580036938e-06 -0.0002464618515992933 8.4887580036938e-06 0.011596842976873915" pbc="T T F"
H        1.40307756       0.81006721      20.00000000        3       1.00000000       0.00000000       0.00000000       0.00000000       0.00000000       0.00000000       0.00000000
H        4.20923268       0.81006721      20.00000000        3       1.00000000       0.00000000       0.00000000       0.00000000       0.00000000       0.00000000       0.00000000
H        0.00000000       3.24026883      20.00000000        3       1.00000000       0.00000000       0.00000000       0.00000000       0.00000000       0.00000000       0.00000000
H        2.80615512       3.24026883      20.00000000        3       1.00000000       0.00000000       0.00000000       0.00000000       0.00000000       0.00000000       0.00000000
H        0.00000000       1.62013441      22.29121606        2       1.00000000       0.00000000       0.00000000       0.00000000       0.00000000       0.00000000       0.00000000
H        2.80615512       1.62013441      22.29121606        2       1.00000000       0.00000000       0.00000000       0.00000000       0.00000000       0.00000000       0.00000000
H        1.40307756       4.05033604      22.29121606        2       1.00000000       0.00000000       0.00000000       0.00000000       0.00000000       0.00000000       0.00000000
H        4.20923268       4.05033604      22.29121606        2       1.00000000       0.00000000       0.00000000       0.00000000       0.00000000       0.00000000       0.00000000
H        0.00000000       0.00000000      24.58243212        1       1.00000000       0.00000000       0.00000000       0.00000000       0.00000000       0.00000000       0.00000000
H        2.80615512       0.00000000      24.58243212        1       1.00000000       0.00000000       0.00000000       0.00000000       0.00000000       0.00000000       0.00000000
H        1.40307756       2.43020162      24.58243212        1       1.00000000       0.00000000       0.00000000       0.00000000       0.00000000       0.00000000       0.00000000
H        4.20923268       2.43020162      24.58243212        1       1.00000000       0.00000000       0.00000000       0.00000000       0.00000000       0.00000000       0.00000000
H       -0.01569399       1.62355997      26.80293583        0       1.00000000      -0.00394876       0.00196430       0.01590335       0.01068005      -0.02953776      -0.01443584
H        2.78610671       1.62405469      26.81264617        0       1.00000000      -0.01680204      -0.00034259       0.01148360       0.02202786      -0.07008956      -0.03696464
H        5.60818039       4.83272995      29.00953499        0       1.00000000      -0.00648964      -0.02378146      -0.00538538       0.00921210       0.00018896       0.02737799
H        1.39911436       4.04149000      26.78914645        0       1.00000000      -0.00757562       0.00009307      -0.01948076       0.01568393       0.08172036       0.03824286
H        2.78726628       4.83629859      29.00244771        0       1.00000000       0.00388966       0.00126630       0.00411622      -0.02038797      -0.00532334      -0.04909640
H        4.20895812       4.05262603      26.77186177        0       1.00000000       0.02274956      -0.00227935       0.02093495      -0.03009910       0.02609216      -0.00045785
H        4.20251297       2.40907688      29.01339235        0       1.00000000       0.01464637       0.03466272       0.01524623       0.01551505       0.00112627       0.02260284
19
Lattice="5.612310241546866 0.0 0.0 0.0 4.860403243099165 0.0 0.0 0.0 44.58243212332868" Properties=species:S:1:pos:R:3:tags:I:1:masses:R:1:momenta:R:3:forces:R:3 KEmax=24.559391461069055 iter=50175 volume=1216.1236359717223 set_wall=T ns_energy=-12.530897177447939 last_walked_iter_clone=50053 energy=-12.532898970334132 stress="0.023654508575098692 0.00014848539573082643 -0.0002464618515992933 0.00014848539573082643 0.023614941396452954 8.4887580036938e-06 -0.0002464618515992933 8.4887580036938e-06 0.011596842976873915" pbc="T T F"
H        1.40307756       0.81006721      20.00000000        3       1.00000000       0.00000000       0.00000000       0.00000000       0.00000000       0.00000000       0.00000000
H        4.20923268       0.81006721      20.00000000        3       1.00000000       0.00000000       0.00000000       0.00000000       0.00000000       0.00000000       0.00000000
H        0.00000000       3.24026883      20.00000000        3       1.00000000       0.00000000       0.00000000       0.00000000       0.00000000       0.00000000       0.00000000
H        2.80615512       3.24026883      20.00000000        3       1.00000000       0.00000000       0.00000000       0.00000000       0.00000000       0.00000000       0.00000000
H        0.00000000       1.62013441      22.29121606        2       1.00000000       0.00000000       0.00000000       0.00000000       0.00000000       0.00000000       0.00000000
H        2.80615512       1.62013441      22.29121606        2       1.00000000       0.00000000       0.00000000       0.00000000       0.00000000       0.00000000       0.00000000
H        1.40307756       4.05033604      22.29121606        2       1.00000000       0.00000000       0.00000000       0.00000000       0.00000000       0.00000000       0.00000000
H        4.20923268       4.05033604      22.29121606        2       1.00000000       0.00000000       0.00000000       0.00000000       0.00000000       0.00000000       0.00000000
H        0.00000000       0.00000000      24.58243212        1       1.00000000       0.00000000       0.00000000       0.00000000       0.00000000       0.00000000       0.00000000
H        2.80615512       0.00000000      24.58243212        1       1.00000000       0.00000000       0.00000000       0.00000000       0.00000000       0.00000000       0.00000000
H        1.40307756       2.43020162      24.58243212        1       1.00000000       0.00000000       0.00000000       0.00000000       0.00000000       0.00000000       0.00000000
H        4.20923268       2.43020162      24.58243212        1       1.00000000       0.00000000       0.00000000       0.00000000       0.00000000       0.00000000       0.00000000
H        0.00354335       1.63006959      26.81660694        0       1.00000000       0.01755538       0.00299853       0.00748972       0.01068005      -0.02953776      -0.01443584
H        2.79131037       1.63585857      26.81621353        0       1.00000000      -0.00659845      -0.00499277      -0.00535377       0.02202786      -0.07008956      -0.03696464
H       -0.00663062       4.84252452      29.03652906        0       1.00000000      -0.02167107       0.03651623       0.01201422       0.00921210       0.00018896       0.02737799
H        1.40886148       4.03760492      26.80489413        0       1.00000000      -0.00022490      -0.01473450      -0.00171714       0.01568393       0.08172036       0.03824286
H        2.79448379       4.87664294      29.02892757        0       1.00000000       0.00224670      -0.00837941      -0.00877608      -0.02038797      -0.00532334      -0.04909640
H        4.20424818       4.07731189      26.79053862        0       1.00000000      -0.01947845       0.02087213       0.00797879      -0.03009910       0.02609216      -0.00045785
H        4.20289291       2.44159000      29.01012071        0       1.00000000      -0.00649793       0.01850657       0.00463327       0.01551505       0.00112627       0.02260284
19
Lattice="5.612310241546866 0.0 0.0 0.0 4.860403243099165 0.0 0.0 0.0 44.58243212332868" Properties=species:S:1:pos:R:3:tags:I:1:masses:R:1:momenta:R:3:forces:R:3 KEmax=24.559391461069055 iter=50175 volume=1216.1236359717223 set_wall=T ns_energy=-12.530899530814208 last_walked_iter_clone=49697 energy=-12.532898970334132 stress="0.023654508575098692 0.00014848539573082643 -0.0002464618515992933 0.00014848539573082643 0.023614941396452954 8.4887580036938e-06 -0.0002464618515992933 8.4887580036938e-06 0.011596842976873915" pbc="T T F"
H        1.40307756       0.81006721      20.00000000        3       1.00000000       0.00000000       0.00000000       0.00000000       0.00000000       0.00000000       0.00000000
H        4.20923268       0.81006721      20.00000000        3       1.00000000       0.00000000       0.00000000       0.00000000       0.00000000       0.00000000       0.00000000
H        0.00000000       3.24026883      20.00000000        3       1.00000000       0.00000000       0.00000000       0.00000000       0.00000000       0.00000000       0.00000000
H        2.80615512       3.24026883      20.00000000        3       1.00000000       0.00000000       0.00000000       0.00000000       0.00000000       0.00000000       0.00000000
H        0.00000000       1.62013441      22.29121606        2       1.00000000       0.00000000       0.00000000       0.00000000       0.00000000       0.00000000       0.00000000
H        2.80615512       1.62013441      22.29121606        2       1.00000000       0.00000000       0.00000000       0.00000000       0.00000000       0.00000000       0.00000000
H        1.40307756       4.05033604      22.29121606        2       1.00000000       0.00000000       0.00000000       0.00000000       0.00000000       0.00000000       0.00000000
H        4.20923268       4.05033604      22.29121606        2       1.00000000       0.00000000       0.00000000       0.00000000       0.00000000       0.00000000       0.00000000
H        0.00000000       0.00000000      24.58243212        1       1.00000000       0.00000000       0.00000000       0.00000000       0.00000000       0.00000000       0.00000000
H        2.80615512       0.00000000      24.58243212        1       1.00000000       0.00000000       0.00000000       0.00000000       0.00000000       0.00000000       0.00000000
H        1.40307756       2.43020162      24.58243212        1       1.00000000       0.00000000       0.00000000       0.00000000       0.00000000       0.00000000       0.00000000
H        4.20923268       2.43020162      24.58243212        1       1.00000000       0.00000000       0.00000000       0.00000000       0.00000000       0.00000000       0.00000000
H       -0.00836962       1.61742673      26.79943479        0       1.00000000       0.00219340       0.01842330       0.01526538       0.01068005      -0.02953776      -0.01443584
H        2.79519675       1.62420866      26.80489903        0       1.00000000       0.00283213      -0.01010390      -0.01283405       0.02202786      -0.07008956      -0.03696464
H        0.00602666       0.01147089      29.01526099        0       1.00000000       0.01024217      -0.03099946       0.00104589       0.00921210       0.00018896       0.02737799
H        1.40734005       4.02842416      26.80215695        0       1.00000000       0.00094879      -0.04875647      -0.00144385       0.01568393       0.08172036       0.03824286
H        2.81115348       0.00173914      29.00384830        0       1.00000000      -0.00802318       0.01505531       0.01765298      -0.02038797      -0.00532334      -0.04909640
H        4.20824281       4.05094288      26.77304180        0       1.00000000       0.01858166      -0.01755803       0.00812012      -0.03009910       0.02609216      -0.00045785
H        4.20266031       2.45608319      29.01130031        0       1.00000000      -0.00052469      -0.00176029      -0.01050084       0.01551505       0.00112627       0.02260284
19
Lattice="5.612310241546866 0.0 0.0 0.0 4.860403243099165 0.0 0.0 0.0 44.58243212332868" Properties=species:S:1:pos:R:3:tags:I:1:masses:R:1:momenta:R:3:forces:R:3 KEmax=24.559391461069055 iter=50175 volume=1216.1236359717223 set_wall=T ns_energy=-12.530901065706715 last_walked_iter_clone=50110 energy=-12.532898970334132 stress="0.023654508575098692 0.00014848539573082643 -0.0002464618515992933 0.00014848539573082643 0.023614941396452954 8.4887580036938e-06 -0.0002464618515992933 8.4887580036938e-06 0.011596842976873915" pbc="T T F"
H        1.40307756       0.81006721      20.00000000        3       1.00000000       0.00000000       0.00000000       0.00000000       0.00000000       0.00000000       0.00000000
H        4.20923268       0.81006721      20.00000000        3       1.00000000       0.00000000       0.00000000       0.00000000       0.00000000       0.00000000       0.00000000
H        0.00000000       3.24026883      20.00000000        3       1.00000000       0.00000000       0.00000000       0.00000000       0.00000000       0.00000000       0.00000000
H        2.80615512       3.24026883      20.00000000        3       1.00000000       0.00000000       0.00000000       0.00000000       0.00000000       0.00000000       0.00000000
H        0.00000000       1.62013441      22.29121606        2       1.00000000       0.00000000       0.00000000       0.00000000       0.00000000       0.00000000       0.00000000
H        2.80615512       1.62013441      22.29121606        2       1.00000000       0.00000000       0.00000000       0.00000000       0.00000000       0.00000000       0.00000000
H        1.40307756       4.05033604      22.29121606        2       1.00000000       0.00000000       0.00000000       0.00000000       0.00000000       0.00000000       0.00000000
H        4.20923268       4.05033604      22.29121606        2       1.00000000       0.00000000       0.00000000       0.00000000       0.00000000       0.00000000       0.00000000
H        0.00000000       0.00000000      24.58243212        1       1.00000000       0.00000000       0.00000000       0.00000000       0.00000000       0.00000000       0.00000000
H        2.80615512       0.00000000      24.58243212        1       1.00000000       0.00000000       0.00000000       0.00000000       0.00000000       0.00000000       0.00000000
H        1.40307756       2.43020162      24.58243212        1       1.00000000       0.00000000       0.00000000       0.00000000       0.00000000       0.00000000       0.00000000
H        4.20923268       2.43020162      24.58243212        1       1.00000000       0.00000000       0.00000000       0.00000000       0.00000000       0.00000000       0.00000000
H        5.63409210       1.62655298      26.80002010        0       1.00000000       0.02299597      -0.00693683       0.00316367       0.01068005      -0.02953776      -0.01443584
H        2.80155322       1.62179737      26.81008078        0       1.00000000      -0.00649514      -0.00878338      -0.00030252       0.02202786      -0.07008956      -0.03696464
H        5.60965250       4.85312408      29.01970129        0       1.00000000      -0.00881481      -0.01329482      -0.01621677       0.00921210       0.00018896       0.02737799
H        1.38951508       4.03606856      26.79862080        0       1.00000000       0.01333710      -0.00069143       0.02974244       0.01568393       0.08172036       0.03824286
H        2.79090571       4.85802710      29.02038835        0       1.00000000       0.01857356      -0.00989871       0.01240232      -0.02038797      -0.00532334      -0.04909640
H        4.20811227       4.06346595      26.77139052        0       1.00000000       0.00021149       0.02311732      -0.00332048      -0.03009910       0.02609216      -0.00045785
H        4.22684146       2.40714747      29.01430058        0       1.00000000       0.00070303       0.00469586      -0.00651655       0.01551505       0.00112627       0.02260284
19
Lattice="5.612310241546866 0.0 0.0 0.0 4.860403243099165 0.0 0.0 0.0 44.58243212332868" Properties=species:S:1:pos:R:3:tags:I:1:masses:R:1:momenta:R:3:forces:R:3 KEmax=24.559391461069055 iter=50175 volume=1216.1236359717223 set_wall=T ns_energy=-12.53106737215676 last_walked_iter_clone=50095 energy=-12.532898970334132 stress="0.023654508575098692 0.00014848539573082643 -0.0002464618515992933 0.00014848539573082643 0.023614941396452954 8.4887580036938e-06 -0.0002464618515992933 8.4887580036938e-06 0.011596842976873915" pbc="T T F"
H        1.40307756       0.81006721      20.00000000        3       1.00000000       0.00000000       0.00000000       0.00000000       0.00000000       0.00000000       0.00000000
H        4.20923268       0.81006721      20.00000000        3       1.00000000       0.00000000       0.00000000       0.00000000       0.00000000       0.00000000       0.00000000
H        0.00000000       3.24026883      20.00000000        3       1.00000000       0.00000000       0.00000000       0.00000000       0.00000000       0.00000000       0.00000000
H        2.80615512       3.24026883      20.00000000        3       1.00000000       0.00000000       0.00000000       0.00000000       0.00000000       0.00000000       0.00000000
H        0.00000000       1.62013441      22.29121606        2       1.00000000       0.00000000       0.00000000       0.00000000       0.00000000       0.00000000       0.00000000
H        2.80615512       1.62013441      22.29121606        2       1.00000000       0.00000000       0.00000000       0.00000000       0.00000000       0.00000000       0.00000000
H        1.40307756       4.05033604      22.29121606        2       1.00000000       0.00000000       0.00000000       0.00000000       0.00000000       0.00000000       0.00000000
H        4.20923268       4.05033604      22.29121606        2       1.00000000       0.00000000       0.00000000       0.00000000       0.00000000       0.00000000       0.00000000
H        0.00000000       0.00000000      24.58243212        1       1.00000000       0.00000000       0.00000000       0.00000000       0.00000000       0.00000000       0.00000000
H        2.80615512       0.00000000      24.58243212        1       1.00000000       0.00000000       0.00000000       0.00000000       0.00000000       0.00000000       0.00000000
H        1.40307756       2.43020162      24.58243212        1       1.00000000       0.00000000       0.00000000       0.00000000       0.00000000       0.00000000       0.00000000
H        4.20923268       2.43020162      24.58243212        1       1.00000000       0.00000000       0.00000000       0.00000000       0.00000000       0.00000000       0.00000000
H        0.00704254       1.62478919      26.80274506        0       1.00000000       0.00200144       0.00235129       0.03801680       0.01068005      -0.02953776      -0.01443584
H        2.80913394       1.62310827      26.80034752        0       1.00000000      -0.00392296      -0.01250578       0.03203879       0.02202786      -0.07008956      -0.03696464
H        0.01324290       4.86889750      29.02590266        0       1.00000000      -0.01204064       0.03164271      -0.00991853       0.00921210       0.00018896       0.02737799
H        1.39592382       4.03898128      26.79621663        0       1.00000000      -0.00651006       0.00528415       0.00162222       0.01568393       0.08172036       0.03824286
H        2.80487378      -0.01980524      29.01953004        0       1.00000000      -0.01005493      -0.01891075      -0.01549974      -0.02038797      -0.00532334      -0.04909640
H        4.21085183       4.05053285      26.77604812        0       1.00000000      -0.02869276       0.00000822       0.01760847      -0.03009910       0.02609216      -0.00045785
H        4.20975395       2.42487144      29.01514300        0       1.00000000       0.00800136      -0.00457750      -0.00058099       0.01551505       0.00112627       0.02260284
19
Lattice="5.612310241546866 0.0 0.0 0.0 4.860403243099165 0.0 0.0 0.0 44.58243212332868" Properties=species:S:1:pos:R:3:tags:I:1:masses:R:1:momenta:R:3:forces:R:3 KEmax=24.559391461069055 iter=50175 volume=1216.1236359717223 set_wall=T ns_energy=-12.53089466931346 last_walked_iter_clone=50140 energy=-12.532898970334132 stress="0.023654508575098692 0.00014848539573082643 -0.0002464618515992933 0.00014848539573082643 0.023614941396452954 8.4887580036938e-06 -0.0002464618515992933 8.4887580036938e-06 0.011596842976873915" pbc="T T F"
H        1.40307756       0.81006721      20.00000000        3       1.00000000       0.00000000       0.00000000       0.00000000       0.00000000       0.00000000       0.00000000
H        4.20923268       0.81006721      20.00000000        3       1.00000000       0.00000000       0.00000000       0.00000000       0.00000000       0.00000000       0.00000000
H        0.00000000       3.24026883      20.00000000        3       1.00000000       0.00000000       0.00000000       0.00000000       0.00000000       0.00000000       0.00000000
H        2.80615512       3.24026883      20.00000000        3       1.00000000       0.00000000       0.00000000       0.00000000       0.00000000       0.00000000       0.00000000
H        0.00000000       1.62013441      22.29121606        2       1.00000000       0.00000000       0.00000000       0.00000000       0.00000000       0.00000000       0.00000000
H        2.80615512       1.62013441      22.29121606        2       1.00000000       0.00000000       0.00000000       0.00000000       0.00000000       0.00000000       0.00000000
H        1.40307756       4.05033604      22.29121606        2       1.00000000       0.00000000       0.00000000       0.00000000       0.00000000       0.00000000       0.00000000
H        4.20923268       4.05033604      22.29121606        2       1.00000000       0.00000000       0.00000000       0.00000000       0.00000000       0.00000000       0.00000000