19
Lattice="5.612310241546866 0.0 0.0 0.0 4.860403243099165 0.0 0.0 0.0 44.58243212332868" Properties=species:S:1:pos:R:3:tags:I:1:masses:R:1:momenta:R:3:forces:R:3 KEmax=24.559391461069055 iter=38531 volume=1216.1236359717223 set_wall=T ns_energy=-12.496134268270417 last_walked_iter_clone=38340 energy=-12.516097484361534 stress="0.023717285715271673 0.0009111324070954261 0.0007929474996464073 0.0009111324070954261 0.023880039759590733 0.000252550568050135 0.0007929474996464073 0.000252550568050135 0.012330751744590952" pbc="T T F"
H        1.40307756       0.81006721      20.00000000        3       1.00000000       0.00000000       0.00000000       0.00000000       0.00000000       0.00000000       0.00000000
H        4.20923268       0.81006721      20.00000000        3       1.00000000       0.00000000       0.00000000       0.00000000       0.00000000       0.00000000       0.00000000
H        0.00000000       3.24026883      20.00000000        3       1.00000000       0.00000000       0.00000000       0.00000000       0.00000000       0.00000000       0.00000000
H        2.80615512       3.24026883      20.00000000        3       1.00000000       0.00000000       0.00000000       0.00000000       0.00000000       0.00000000       0.00000000
H        0.00000000       1.62013441      22.29121606        2       1.00000000       0.00000000       0.00000000       0.00000000       0.00000000       0.00000000       0.00000000
H        2.80615512       1.62013441      22.29121606        2       1.00000000       0.00000000       0.00000000       0.00000000       0.00000000       0.00000000       0.00000000
H        1.40307756       4.05033604      22.29121606        2       1.00000000       0.00000000       0.00000000       0.00000000       0.00000000       0.00000000       0.00000000
H        4.20923268       4.05033604      22.29121606        2       1.00000000       0.00000000       0.00000000       0.00000000       0.00000000       0.00000000       0.00000000
H        0.00000000       0.00000000      24.58243212        1       1.00000000       0.00000000       0.00000000       0.00000000       0.00000000       0.00000000       0.00000000
H        2.80615512       0.00000000      24.58243212        1       1.00000000       0.00000000       0.00000000       0.00000000       0.00000000       0.00000000       0.00000000
H        1.40307756       2.43020162      24.58243212        1       1.00000000       0.00000000       0.00000000       0.00000000       0.00000000       0.00000000       0.00000000
H        4.20923268       2.43020162      24.58243212        1       1.00000000       0.00000000       0.00000000       0.00000000       0.00000000       0.00000000       0.00000000
H        0.01955754       1.71434719      26.80135522        0       1.00000000      -0.03292403       0.01926966      -0.02630965      -0.08360681      -0.06650324      -0.02605827
H        2.79599107       1.63375765      26.83454854        0       1.00000000       0.01028974       0.08066028       0.00267303       0.02193285      -0.04643074       0.00948039
H        0.02245098       0.10276049      28.98037980        0       1.00000000      -0.01939609       0.06447782      -0.03890979      -0.12253829      -0.10847867      -0.10125472
H        1.40426095       4.08765287      26.81209203        0       1.00000000       0.00080649      -0.01014271      -0.04420407       0.06318170       0.07868743       0.14139137
H        2.84801912       4.94203584      29.05350533        0       1.00000000      -0.02902660       0.09699869       0.03418685       0.12056602       0.00309030       0.00288614
H        4.22217061       4.10423615      26.77336844        0       1.00000000       0.04255301      -0.04788249       0.04671054      -0.02148346       0.10960260       0.07723237
H        4.17088361       2.52100755      29.05329938        0       1.00000000      -0.05892177      -0.02700110       0.01813754      -0.03089298       0.05417871      -0.04370884
19
Lattice="5.612310241546866 0.0 0.0 0.0 4.860403243099165 0.0 0.0 0.0 44.58243212332868" Properties=species:S:1:pos:R:3:tags:I:1:masses:R:1:momenta:R:3:forces:R:3 KEmax=24.559391461069055 iter=38531 volume=1216.1236359717223 set_wall=T ns_energy=-12.496238369062626 last_walked_iter_clone=38233 energy=-12.516097484361534 stress="0.023717285715271673 0.0009111324070954261 0.0007929474996464073 0.0009111324070954261 0.023880039759590733 0.000252550568050135 0.0007929474996464073 0.000252550568050135 0.012330751744590952" pbc="T T F"
H        1.40307756       0.81006721      20.00000000        3       1.00000000       0.00000000       0.00000000       0.00000000       0.00000000       0.00000000       0.00000000
H        4.20923268       0.81006721      20.00000000        3       1.00000000       0.00000000       0.00000000       0.00000000       0.00000000       0.00000000       0.00000000
H        0.00000000       3.24026883      20.00000000        3       1.00000000       0.00000000       0.00000000       0.00000000       0.00000000       0.00000000       0.00000000
H        2.80615512       3.24026883      20.00000000        3       1.00000000       0.00000000       0.00000000       0.00000000       0.00000000       0.00000000       0.00000000
H        0.00000000       1.62013441      22.29121606        2       1.00000000       0.00000000       0.00000000       0.00000000       0.00000000       0.00000000       0.00000000
H        2.80615512       1.62013441      22.29121606        2       1.00000000       0.00000000       0.00000000       0.00000000       0.00000000       0.00000000       0.00000000
H        1.40307756       4.05033604      22.29121606        2       1.00000000       0.00000000       0.00000000       0.00000000       0.00000000       0.00000000       0.00000000
H        4.20923268       4.05033604      22.29121606        2       1.00000000       0.00000000       0.00000000       0.00000000       0.00000000       0.00000000       0.00000000
H        0.00000000       0.00000000      24.58243212        1       1.00000000       0.00000000       0.00000000       0.00000000       0.00000000       0.00000000       0.00000000
H        2.80615512       0.00000000      24.58243212        1       1.00000000       0.00000000       0.00000000       0.00000000       0.00000000       0.00000000       0.00000000
H        1.40307756       2.43020162      24.58243212        1       1.00000000       0.00000000       0.00000000       0.00000000       0.00000000       0.00000000       0.00000000
H        4.20923268       2.43020162      24.58243212        1       1.00000000       0.00000000       0.00000000       0.00000000       0.00000000       0.00000000       0.00000000
H        5.64171595       1.62421143      26.83477176        0       1.00000000       0.05039633      -0.00168345      -0.00237547      -0.08360681      -0.06650324      -0.02605827
H        2.84695273       1.63059362      26.81575875        0       1.00000000       0.03836903       0.12314287       0.01214456       0.02193285      -0.04643074       0.00948039
H        5.57866537       4.87052295      29.02094792        0       1.00000000       0.07729594       0.03302353       0.00362892      -0.12253829      -0.10847867      -0.10125472
H        1.44116083       4.03156686      26.79934004        0       1.00000000      -0.00507592      -0.04771870       0.01603887       0.06318170       0.07868743       0.14139137
H        2.77299010       4.87140200      29.03755674        0       1.00000000       0.01770944      -0.03336573       0.05819510       0.12056602       0.00309030       0.00288614
H        4.21682065       4.03500096      26.83302604        0       1.00000000       0.05582482      -0.03587982       0.01110182      -0.02148346       0.10960260       0.07723237
H        4.17381918       2.47905425      29.08431937        0       1.00000000       0.04680279       0.05304849      -0.02020650      -0.03089298       0.05417871      -0.04370884
19
Lattice="5.612310241546866 0.0 0.0 0.0 4.860403243099165 0.0 0.0 0.0 44.58243212332868" Properties=species:S:1:pos:R:3:tags:I:1:masses:R:1:momenta:R:3:forces:R:3 KEmax=24.559391461069055 iter=38531 volume=1216.1236359717223 set_wall=T ns_energy=-12.496592692766756 last_walked_iter_clone=38512 energy=-12.516097484361534 stress="0.023717285715271673 0.0009111324070954261 0.0007929474996464073 0.0009111324070954261 0.023880039759590733 0.000252550568050135 0.0007929474996464073 0.000252550568050135 0.012330751744590952" pbc="T T F"
H        1.40307756       0.81006721      20.00000000        3       1.00000000       0.00000000       0.00000000       0.00000000       0.00000000       0.00000000       0.00000000
H        4.20923268       0.81006721      20.00000000        3       1.00000000       0.00000000       0.00000000       0.00000000       0.00000000       0.00000000       0.00000000
H        0.00000000       3.24026883      20.00000000        3       1.00000000       0.00000000       0.00000000       0.00000000       0.00000000       0.00000000       0.00000000
H        2.80615512       3.24026883      20.00000000        3       1.00000000       0.00000000       0.00000000       0.00000000       0.00000000       0.00000000       0.00000000
H        0.00000000       1.62013441      22.29121606        2       1.00000000       0.00000000       0.00000000       0.00000000       0.00000000       0.00000000       0.00000000
H        2.80615512       1.62013441      22.29121606        2       1.00000000       0.00000000       0.00000000       0.00000000       0.00000000       0.00000000       0.00000000
H        1.40307756       4.05033604      22.29121606        2       1.00000000       0.00000000       0.00000000       0.00000000       0.00000000       0.00000000       0.00000000
H        4.20923268       4.05033604      22.29121606        2       1.00000000       0.00000000       0.00000000       0.00000000       0.00000000       0.00000000       0.00000000
H        0.00000000       0.00000000      24.58243212        1       1.00000000       0.00000000       0.00000000       0.00000000       0.00000000       0.00000000       0.00000000
H        2.80615512       0.00000000      24.58243212        1       1.00000000       0.00000000       0.00000000       0.00000000       0.00000000       0.00000000       0.00000000
H        1.40307756       2.43020162      24.58243212        1       1.00000000       0.00000000       0.00000000       0.00000000       0.00000000       0.00000000       0.00000000
H        4.20923268       2.43020162      24.58243212        1       1.00000000       0.00000000       0.00000000       0.00000000       0.00000000       0.00000000       0.00000000
H        0.00328729       1.57055669      26.82721857        0       1.00000000       0.01524173      -0.00381011      -0.02884848      -0.08360681      -0.06650324      -0.02605827
H        2.83048975       1.54775062      26.86392419        0       1.00000000       0.00060524       0.00601641       0.01663608       0.02193285      -0.04643074       0.00948039
H       -0.01173383       4.79672134      29.02413590        0       1.00000000      -0.01950492      -0.04093944       0.03731280      -0.12253829      -0.10847867      -0.10125472
H        1.44794472       4.03035089      26.79134774        0       1.00000000      -0.07212670       0.03074332       0.02179281       0.06318170       0.07868743       0.14139137
H        2.83302678       4.80208635      29.01545784        0       1.00000000       0.05798456       0.07705128       0.00127065       0.12056602       0.00309030       0.00288614
H        4.24024603       3.98742290      26.78834381        0       1.00000000       0.02735788       0.03294493      -0.03767940      -0.02148346       0.10960260       0.07723237
H        4.21293661       2.38917335      29.05100258        0       1.00000000       0.03197622      -0.02499397       0.04189485      -0.03089298       0.05417871      -0.04370884
19
Lattice="5.612310241546866 0.0 0.0 0.0 4.860403243099165 0.0 0.0 0.0 44.58243212332868" Properties=species:S:1:pos:R:3:tags:I:1:masses:R:1:momenta:R:3:forces:R:3 KEmax=24.559391461069055 iter=38531 volume=1216.1236359717223 set_wall=T ns_energy=-12.496292880366779 last_walked_iter_clone=38336 energy=-12.516097484361534 stress="0.023717285715271673 0.0009111324070954261 0.0007929474996464073 0.0009111324070954261 0.023880039759590733 0.000252550568050135 0.0007929474996464073 0.000252550568050135 0.012330751744590952" pbc="T T F"
H        1.40307756       0.81006721      20.00000000        3       1.00000000       0.00000000       0.00000000       0.00000000       0.00000000       0.00000000       0.00000000
H        4.20923268       0.81006721      20.00000000        3       1.00000000       0.00000000       0.00000000       0.00000000       0.00000000       0.00000000       0.00000000
H        0.00000000       3.24026883      20.00000000        3       1.00000000       0.00000000       0.00000000       0.00000000       0.00000000       0.00000000       0.00000000
H        2.80615512       3.24026883      20.00000000        3       1.00000000       0.00000000       0.00000000       0.00000000       0.00000000       0.00000000       0.00000000
H        0.00000000       1.62013441      22.29121606        2       1.00000000       0.00000000       0.00000000       0.00000000       0.00000000       0.00000000       0.00000000
H        2.80615512       1.62013441      22.29121606        2       1.00000000       0.00000000       0.00000000       0.00000000       0.00000000       0.00000000       0.00000000
H        1.40307756       4.05033604      22.29121606        2       1.00000000       0.00000000       0.00000000       0.00000000       0.00000000       0.00000000       0.00000000
H        4.20923268       4.05033604      22.29121606        2       1.00000000       0.00000000       0.00000000       0.00000000       0.00000000       0.00000000       0.00000000
H        0.00000000       0.00000000      24.58243212        1       1.00000000       0.00000000       0.00000000       0.00000000       0.00000000       0.00000000       0.00000000
H        2.80615512       0.00000000      24.58243212        1       1.00000000       0.00000000       0.00000000       0.00000000       0.00000000       0.00000000       0.00000000
H        1.40307756       2.43020162      24.58243212        1       1.00000000       0.00000000       0.00000000       0.00000000       0.00000000       0.00000000       0.00000000
H        4.20923268       2.43020162      24.58243212        1       1.00000000       0.00000000       0.00000000       0.00000000       0.00000000       0.00000000       0.00000000
H        0.04649607       1.61910378      26.83467722        0       1.00000000      -0.04099291       0.05103577      -0.01517347      -0.08360681      -0.06650324      -0.02605827
H        2.85135359       1.62897719      26.81870360        0       1.00000000       0.03973017       0.03505912      -0.02787849       0.02193285      -0.04643074       0.00948039
H        5.69898467      -0.12092669      29.04595564        0       1.00000000       0.04871725      -0.03398455       0.04395653      -0.12253829      -0.10847867      -0.10125472
H        1.42079964       4.06197420      26.79281222        0       1.00000000       0.03218254      -0.03869478       0.03713410       0.06318170       0.07868743       0.14139137
H        2.85146695       4.80621552      29.00712135        0       1.00000000       0.06258383       0.07015532       0.02719494       0.12056602       0.00309030       0.00288614
H        4.25293235       4.08180146      26.76980484        0       1.00000000      -0.06208072      -0.01273628      -0.06187186      -0.02148346       0.10960260       0.07723237
H        4.27075295       2.38796164      29.01424000        0       1.00000000       0.03818637      -0.05006141       0.01907027      -0.03089298       0.05417871      -0.04370884
19
Lattice="5.612310241546866 0.0 0.0 0.0 4.860403243099165 0.0 0.0 0.0 44.58243212332868" Properties=species:S:1:pos:R:3:tags:I:1:masses:R:1:momenta:R:3:forces:R:3 KEmax=24.559391461069055 iter=38531 volume=1216.1236359717223 set_wall=T ns_energy=-12.49632088978501 last_walked_iter_clone=38456 energy=-12.516097484361534 stress="0.023717285715271673 0.0009111324070954261 0.0007929474996464073 0.0009111324070954261 0.023880039759590733 0.000252550568050135 0.0007929474996464073 0.000252550568050135 0.012330751744590952" pbc="T T F"
H        1.40307756       0.81006721      20.00000000        3       1.00000000       0.00000000       0.00000000       0.00000000       0.00000000       0.00000000       0.00000000
H        4.20923268       0.81006721      20.00000000        3       1.00000000       0.00000000       0.00000000       0.00000000       0.00000000       0.00000000       0.00000000
H        0.00000000       3.24026883      20.00000000        3       1.00000000       0.00000000       0.00000000       0.00000000       0.00000000       0.00000000       0.00000000
H        2.80615512       3.24026883      20.00000000        3       1.00000000       0.00000000       0.00000000       0.00000000       0.00000000       0.00000000       0.00000000
H        0.00000000       1.62013441      22.29121606        2       1.00000000       0.00000000       0.00000000       0.00000000       0.00000000       0.00000000       0.00000000
H        2.80615512       1.62013441      22.29121606        2       1.00000000       0.00000000       0.00000000       0.00000000       0.00000000       0.00000000       0.00000000
H        1.40307756       4.05033604      22.29121606        2       1.00000000       0.00000000       0.00000000       0.00000000       0.00000000       0.00000000       0.00000000
H        4.20923268       4.05033604      22.29121606        2       1.00000000       0.00000000       0.00000000       0.00000000       0.00000000       0.00000000       0.00000000
H        0.00000000       0.00000000      24.58243212        1       1.00000000       0.00000000       0.00000000       0.00000000       0.00000000       0.00000000       0.00000000
H        2.80615512       0.00000000      24.58243212        1       1.00000000       0.00000000       0.00000000       0.00000000       0.00000000       0.00000000       0.00000000
H        1.40307756       2.43020162      24.58243212        1       1.00000000       0.00000000       0.00000000       0.00000000       0.00000000       0.00000000       0.00000000
H        4.20923268       2.43020162      24.58243212        1       1.00000000       0.00000000       0.00000000       0.00000000       0.00000000       0.00000000       0.00000000
H        0.00583745       1.65399248      26.74179803        0       1.00000000       0.00289028       0.04381943      -0.05448520      -0.08360681      -0.06650324      -0.02605827
H        2.79325218       1.65474100      26.76435635        0       1.00000000      -0.08628494       0.03962533      -0.01540259       0.02193285      -0.04643074       0.00948039
H        0.05082006       0.06920657      29.02172332        0       1.00000000      -0.03819688      -0.05870895       0.06907263      -0.12253829      -0.10847867      -0.10125472
H        1.43546822       4.03298356      26.80026759        0       1.00000000      -0.01108275       0.05535126      -0.04717965       0.06318170       0.07868743       0.14139137
H        2.86697205       4.91482039      29.04665747        0       1.00000000      -0.02215488       0.04876366       0.07025025       0.12056602       0.00309030       0.00288614
H        4.23933362       4.08770994      26.77400275        0       1.00000000      -0.02433199       0.02389080      -0.03029037      -0.02148346       0.10960260       0.07723237
H        4.26212258       2.46133442      28.97074092        0       1.00000000      -0.04092823      -0.00729526       0.04053388      -0.03089298       0.05417871      -0.04370884
19
Lattice="5.612310241546866 0.0 0.0 0.0 4.860403243099165 0.0 0.0 0.0 44.58243212332868" Properties=species:S:1:pos:R:3:tags:I:1:masses:R:1:momenta:R:3:forces:R:3 KEmax=24.559391461069055 iter=38531 volume=1216.1236359717223 set_wall=T ns_energy=-12.496074255174445 last_walked_iter_clone=38199 energy=-12.516097484361534 stress="0.023717285715271673 0.0009111324070954261 0.0007929474996464073 0.0009111324070954261 0.023880039759590733 0.000252550568050135 0.0007929474996464073 0.000252550568050135 0.012330751744590952" pbc="T T F"
H        1.40307756       0.81006721      20.00000000        3       1.00000000       0.00000000       0.00000000       0.00000000       0.00000000       0.00000000       0.00000000
H        4.20923268       0.81006721      20.00000000        3       1.00000000       0.00000000       0.00000000       0.00000000       0.00000000       0.00000000       0.00000000
H        0.00000000       3.24026883      20.00000000        3       1.00000000       0.00000000       0.00000000       0.00000000       0.00000000       0.00000000       0.00000000
H        2.80615512       3.24026883      20.00000000        3       1.00000000       0.00000000       0.00000000       0.00000000       0.00000000       0.00000000       0.00000000
H        0.00000000       1.62013441      22.29121606        2       1.00000000       0.00000000       0.00000000       0.00000000       0.00000000       0.00000000       0.00000000
H        2.80615512       1.62013441      22.29121606        2       1.00000000       0.00000000       0.00000000       0.00000000       0.00000000       0.00000000       0.00000000
H        1.40307756       4.05033604      22.29121606        2       1.00000000       0.00000000       0.00000000       0.00000000       0.00000000       0.00000000       0.00000000
H        4.20923268       4.05033604      22.29121606        2       1.00000000       0.00000000       0.00000000       0.00000000       0.00000000       0.00000000       0.00000000
H        0.00000000       0.00000000      24.58243212        1       1.00000000       0.00000000       0.00000000       0.00000000       0.00000000       0.00000000       0.00000000
H        2.80615512       0.00000000      24.58243212        1       1.00000000       0.00000000       0.00000000       0.00000000       0.00000000       0.00000000       0.00000000
H        1.40307756       2.43020162      24.58243212        1       1.00000000       0.00000000       0.00000000       0.00000000       0.00000000       0.00000000       0.00000000
H        4.20923268       2.43020162      24.58243212        1       1.00000000       0.00000000       0.00000000       0.00000000       0.00000000       0.00000000       0.00000000
H        5.65621076       1.62332083      26.76288078        0       1.00000000       0.07942737      -0.01404313       0.05441278      -0.08360681      -0.06650324      -0.02605827
H        2.81222655       1.70221188      26.81526244        0       1.00000000       0.03764368      -0.02336964      -0.03599781       0.02193285      -0.04643074       0.00948039
H        0.01825792       0.11558703      29.06534715        0       1.00000000       0.03914423      -0.06605144      -0.01412327      -0.12253829      -0.10847867      -0.10125472
H        1.43018626       4.08077953      26.82442507        0       1.00000000       0.01287435       0.01227142      -0.01109190       0.06318170       0.07868743       0.14139137
H        2.83405831       0.03941882      29.04457259        0       1.00000000       0.04729090       0.06489471       0.00745881       0.12056602       0.00309030       0.00288614
H        4.22989435       4.07806931      26.80117435        0       1.00000000      -0.05532197       0.01929833       0.02603088      -0.02148346       0.10960260       0.07723237
H        4.24589858       2.54277730      29.02882688        0       1.00000000      -0.02292733       0.03319538       0.01161416      -0.03089298       0.05417871      -0.04370884
19
Lattice="5.612310241546866 0.0 0.0 0.0 4.860403243099165 0.0 0.0 0.0 44.58243212332868" Properties=species:S:1:pos:R:3:tags:I:1:masses:R:1:momenta:R:3:forces:R:3 KEmax=24.559391461069055 iter=38531 volume=1216.1236359717223 set_wall=T ns_energy=-12.496305535828798 last_walked_iter_clone=38323 energy=-12.516097484361534 stress="0.023717285715271673 0.0009111324070954261 0.0007929474996464073 0.0009111324070954261 0.023880039759590733 0.000252550568050135 0.0007929474996464073 0.000252550568050135 0.012330751744590952" pbc="T T F"
H        1.40307756       0.81006721      20.00000000        3       1.00000000       0.00000000       0.00000000       0.00000000       0.00000000       0.00000000       0.00000000
H        4.20923268       0.81006721      20.00000000        3       1.00000000       0.00000000       0.00000000       0.00000000       0.00000000       0.00000000       0.00000000
H        0.00000000       3.24026883      20.00000000        3       1.00000000       0.00000000       0.00000000       0.00000000       0.00000000       0.00000000       0.00000000
H        2.80615512       3.24026883      20.00000000        3       1.00000000       0.00000000       0.00000000       0.00000000       0.00000000       0.00000000       0.00000000
H        0.00000000       1.62013441      22.29121606        2       1.00000000       0.00000000       0.00000000       0.00000000       0.00000000       0.00000000       0.00000000
H        2.80615512       1.62013441      22.29121606        2       1.00000000       0.00000000       0.00000000       0.00000000       0.00000000       0.00000000       0.00000000
H        1.40307756       4.05033604      22.29121606        2       1.00000000       0.00000000       0.00000000       0.00000000       0.00000000       0.00000000       0.00000000
H        4.20923268       4.05033604      22.29121606        2       1.00000000       0.00000000       0.00000000       0.00000000       0.00000000       0.00000000       0.00000000
H        0.00000000       0.00000000      24.58243212        1       1.00000000       0.00000000       0.00000000       0.00000000       0.00000000       0.00000000       0.00000000
H        2.80615512       0.00000000      24.58243212        1       1.00000000       0.00000000       0.00000000       0.00000000       0.00000000       0.00000000       0.00000000
H        1.40307756       2.43020162      24.58243212        1       1.00000000       0.00000000       0.00000000       0.00000000       0.00000000       0.00000000       0.00000000
H        4.20923268       2.43020162      24.58243212        1       1.00000000       0.00000000       0.00000000       0.00000000       0.00000000       0.00000000       0.00000000
H        5.64078743       1.57919384      26.77988750        0       1.00000000      -0.04063766       0.04302720      -0.02847964      -0.08360681      -0.06650324      -0.02605827
H        2.84174892       1.62955220      26.83501967        0       1.00000000      -0.04358678       0.00883318       0.03911264       0.02193285      -0.04643074       0.00948039
H        0.10058090       4.96162528      29.05351622        0       1.00000000      -0.00244293      -0.00244174      -0.04364991      -0.12253829      -0.10847867      -0.10125472
H        1.46151430       4.02386240      26.80714480        0       1.00000000      -0.05272832      -0.08154657      -0.04044365       0.06318170       0.07868743       0.14139137
H        2.89794861      -0.00882078      29.08700670        0       1.00000000      -0.02056662       0.04565138      -0.02282479       0.12056602       0.00309030       0.00288614
H        4.23853664       4.04558317      26.79800889        0       1.00000000       0.07226137      -0.02577655      -0.00556987      -0.02148346       0.10960260       0.07723237
H        4.33176559       2.44874674      29.01636906        0       1.00000000      -0.02794954      -0.02977340       0.03696771      -0.03089298       0.05417871      -0.04370884
19
Lattice="5.612310241546866 0.0 0.0 0.0 4.860403243099165 0.0 0.0 0.0 44.58243212332868" Properties=species:S:1:pos:R:3:tags:I:1:masses:R:1:momenta:R:3:forces:R:3 KEmax=24.559391461069055 iter=38531 volume=1216.1236359717223 set_wall=T ns_energy=-12.496140855045095 last_walked_iter_clone=38353 energy=-12.516097484361534 stress="0.023717285715271673 0.0009111324070954261 0.0007929474996464073 0.0009111324070954261 0.023880039759590733 0.000252550568050135 0.0007929474996464073 0.000252550568050135 0.012330751744590952" pbc="T T F"
H        1.40307756       0.81006721      20.00000000        3       1.00000000       0.00000000       0.00000000       0.00000000       0.00000000       0.00000000       0.00000000
H        4.20923268       0.81006721      20.00000000        3       1.00000000       0.00000000       0.00000000       0.00000000       0.00000000       0.00000000       0.00000000
H        0.00000000       3.24026883      20.00000000        3       1.00000000       0.00000000       0.00000000       0.00000000       0.00000000       0.00000000       0.00000000
H        2.80615512       3.24026883      20.00000000        3       1.00000000       0.00000000       0.00000000       0.00000000       0.00000000       0.00000000       0.00000000
H        0.00000000       1.62013441      22.29121606        2       1.00000000       0.00000000       0.00000000       0.00000000       0.00000000       0.00000000       0.00000000
H        2.80615512       1.62013441      22.29121606        2       1.00000000       0.00000000       0.00000000       0.00000000       0.00000000       0.00000000       0.00000000
H        1.40307756       4.05033604      22.29121606        2       1.00000000       0.00000000       0.00000000       0.00000000       0.00000000       0.00000000       0.00000000
H        4.20923268       4.05033604      22.29121606        2       1.00000000       0.00000000       0.00000000       0.00000000       0.00000000       0.00000000       0.00000000