21
Lattice="5.612310241546866 0.0 0.0 0.0 4.860403243099165 0.0 0.0 0.0 24.582432123328676" Properties=species:S:1:pos:R:3:tags:I:1:masses:R:1:momenta:R:3 KEmax=27.14459056223422 iter=99 volume=670.5618179858607 ns_energy=1267.9999391859737 last_walked_iter_clone=32 ns_P=0.0 config_n_global=99 ns_KE=23.19105603336445 pbc="T T T"
H        1.40307756       0.81006721      10.00000000        3       1.00000000       0.00000000       0.00000000       0.00000000
H        4.20923268       0.81006721      10.00000000        3       1.00000000       0.00000000       0.00000000       0.00000000
H        0.00000000       3.24026883      10.00000000        3       1.00000000       0.00000000       0.00000000       0.00000000
H        2.80615512       3.24026883      10.00000000        3       1.00000000       0.00000000       0.00000000       0.00000000
H        0.00000000       1.62013441      12.29121606        2       1.00000000       0.00000000       0.00000000       0.00000000
H        2.80615512       1.62013441      12.29121606        2       1.00000000       0.00000000       0.00000000       0.00000000
H        1.40307756       4.05033604      12.29121606        2       1.00000000       0.00000000       0.00000000       0.00000000
H        4.20923268       4.05033604      12.29121606        2       1.00000000       0.00000000       0.00000000       0.00000000
H        0.00000000       0.00000000      14.58243212        1       1.00000000       0.00000000       0.00000000       0.00000000
H        2.80615512       0.00000000      14.58243212        1       1.00000000       0.00000000       0.00000000       0.00000000
H        1.40307756       2.43020162      14.58243212        1       1.00000000       0.00000000       0.00000000       0.00000000
H        4.20923268       2.43020162      14.58243212        1       1.00000000       0.00000000       0.00000000       0.00000000
H        2.51172221       2.39299468       3.09755339        0       1.00000000       0.80564143      -0.71704137       1.45471757
H        5.43072943       4.15601454       0.91288520        0       1.00000000       0.03060200      -0.81627641      -1.12379955
H        0.73374930       3.57303490      18.59790849        0       1.00000000       0.89168536       0.24398847       2.23872926
H        2.04084679       0.84083397      21.30031546        0       1.00000000      -0.34042241       0.29868610      -2.24826564
H        1.16178433       3.64094727      17.34537358        0       1.00000000       2.51327873       1.02952472       0.80238737
H        2.56849405       3.51900144       1.71314922        0       1.00000000      -0.09740676       0.01112707       2.19693795
H        1.12997964       0.21032718       2.72034611        0       1.00000000       1.57434072      -0.66170910       0.02748430
H        0.14715990       2.75365894      16.99210072        0       1.00000000       2.03390033       0.89300598       0.64629037
H        3.82107731       0.23106363      19.47490009        0       1.00000000      -2.83460784       0.93332102       0.12071956
21
Lattice="5.612310241546866 0.0 0.0 0.0 4.860403243099165 0.0 0.0 0.0 24.582432123328676" Properties=species:S:1:pos:R:3:tags:I:1:masses:R:1:momenta:R:3 KEmax=27.14459056223422 iter=199 volume=670.5618179858607 ns_energy=195.4068788886035 ns_P=0.0 config_n_global=199 ns_KE=12.57786687981798 pbc="T T T"
H        1.40307756       0.81006721      10.00000000        3       1.00000000       0.00000000       0.00000000       0.00000000
H        4.20923268       0.81006721      10.00000000        3       1.00000000       0.00000000       0.00000000       0.00000000
H        0.00000000       3.24026883      10.00000000        3       1.00000000       0.00000000       0.00000000       0.00000000
H        2.80615512       3.24026883      10.00000000        3       1.00000000       0.00000000       0.00000000       0.00000000
H        0.00000000       1.62013441      12.29121606        2       1.00000000       0.00000000       0.00000000       0.00000000
H        2.80615512       1.62013441      12.29121606        2       1.00000000       0.00000000       0.00000000       0.00000000
H        1.40307756       4.05033604      12.29121606        2       1.00000000       0.00000000       0.00000000       0.00000000
H        4.20923268       4.05033604      12.29121606        2       1.00000000       0.00000000       0.00000000       0.00000000
H        0.00000000       0.00000000      14.58243212        1       1.00000000       0.00000000       0.00000000       0.00000000
H        2.80615512       0.00000000      14.58243212        1       1.00000000       0.00000000       0.00000000       0.00000000
H        1.40307756       2.43020162      14.58243212        1       1.00000000       0.00000000       0.00000000       0.00000000
H        4.20923268       2.43020162      14.58243212        1       1.00000000       0.00000000       0.00000000       0.00000000
H        3.08133253       2.20256113       0.02649928        0       1.00000000       1.25088074      -1.39851981       1.60925387
H        2.74075953       4.48346015      20.97199895        0       1.00000000       0.73681309      -1.44621442      -0.17337043
H        4.11233112       1.22059151      19.80635097        0       1.00000000      -0.71662364       1.36219806       1.90406416
H        1.81752075       0.45094417      19.67708889        0       1.00000000       0.04443715      -0.09075024      -0.20782363
H        2.04924528       0.85464200       6.96598868        0       1.00000000       0.43715230       1.41520670       0.15694684
H        0.33913792       1.04329264      16.58245389        0       1.00000000       0.88053318      -0.11311327      -0.13005288
H        3.37619877       4.76820439      23.26489056        0       1.00000000       0.87995803       0.35884438       0.40677637
H        1.35960507       2.97235645       6.24763536        0       1.00000000      -1.69815311       0.93080455       0.82457507
H        0.57022390       4.15097361       6.74466929        0       1.00000000      -0.88259371      -0.77025322       0.66221865
21
Lattice="5.612310241546866 0.0 0.0 0.0 4.860403243099165 0.0 0.0 0.0 24.582432123328676" Properties=species:S:1:pos:R:3:tags:I:1:masses:R:1:momenta:R:3 KEmax=27.14459056223422 iter=299 volume=670.5618179858607 ns_energy=42.369441481766906 last_walked_iter_clone=100 ns_P=0.0 config_n_global=299 ns_KE=26.490436353047464 pbc="T T T"
H        1.40307756       0.81006721      10.00000000        3       1.00000000       0.00000000       0.00000000       0.00000000
H        4.20923268       0.81006721      10.00000000        3       1.00000000       0.00000000       0.00000000       0.00000000
H        0.00000000       3.24026883      10.00000000        3       1.00000000       0.00000000       0.00000000       0.00000000
H        2.80615512       3.24026883      10.00000000        3       1.00000000       0.00000000       0.00000000       0.00000000
H        0.00000000       1.62013441      12.29121606        2       1.00000000       0.00000000       0.00000000       0.00000000
H        2.80615512       1.62013441      12.29121606        2       1.00000000       0.00000000       0.00000000       0.00000000
H        1.40307756       4.05033604      12.29121606        2       1.00000000       0.00000000       0.00000000       0.00000000
H        4.20923268       4.05033604      12.29121606        2       1.00000000       0.00000000       0.00000000       0.00000000
H        0.00000000       0.00000000      14.58243212        1       1.00000000       0.00000000       0.00000000       0.00000000
H        2.80615512       0.00000000      14.58243212        1       1.00000000       0.00000000       0.00000000       0.00000000
H        1.40307756       2.43020162      14.58243212        1       1.00000000       0.00000000       0.00000000       0.00000000
H        4.20923268       2.43020162      14.58243212        1       1.00000000       0.00000000       0.00000000       0.00000000
H        3.48754437       2.87410745      22.64307201        0       1.00000000       0.77635479      -1.07809643       0.15038424
H        3.90897587       0.75772053      21.66454581        0       1.00000000      -1.16289200       1.94173047       0.57467975
H        0.97380520       4.44379102       4.32952323        0       1.00000000      -0.18705470       0.52744385      -1.07979411
H        2.04474148       2.62258883      24.21523568        0       1.00000000      -1.67199780      -1.52093632      -0.72183366
H        5.60304552       0.29308651       7.05510847        0       1.00000000       0.68028015       0.50821828       0.65027225
H        3.98979354       3.11357854       4.98407145        0       1.00000000       2.34694617      -1.40321769      -1.54043797
H        1.98103756       0.91914606      18.28536837        0       1.00000000       2.63805084      -1.26324182       2.30989268
H        0.80385890       1.12568016       1.93625827        0       1.00000000      -0.50520169       0.17736396       0.76641469
H        1.71398273       0.11918361       6.72914662        0       1.00000000       2.15732545      -2.62618901       1.14960630
21
Lattice="5.612310241546866 0.0 0.0 0.0 4.860403243099165 0.0 0.0 0.0 24.582432123328676" Properties=species:S:1:pos:R:3:tags:I:1:masses:R:1:momenta:R:3 KEmax=27.14459056223422 iter=399 volume=670.5618179858607 ns_energy=20.90664871318153 last_walked_iter_clone=391 ns_P=0.0 config_n_global=399 ns_KE=25.701006060405106 pbc="T T T"
H        1.40307756       0.81006721      10.00000000        3       1.00000000       0.00000000       0.00000000       0.00000000
H        4.20923268       0.81006721      10.00000000        3       1.00000000       0.00000000       0.00000000       0.00000000
H        0.00000000       3.24026883      10.00000000        3       1.00000000       0.00000000       0.00000000       0.00000000
H        2.80615512       3.24026883      10.00000000        3       1.00000000       0.00000000       0.00000000       0.00000000
H        0.00000000       1.62013441      12.29121606        2       1.00000000       0.00000000       0.00000000       0.00000000
H        2.80615512       1.62013441      12.29121606        2       1.00000000       0.00000000       0.00000000       0.00000000
H        1.40307756       4.05033604      12.29121606        2       1.00000000       0.00000000       0.00000000       0.00000000
H        4.20923268       4.05033604      12.29121606        2       1.00000000       0.00000000       0.00000000       0.00000000
H        0.00000000       0.00000000      14.58243212        1       1.00000000       0.00000000       0.00000000       0.00000000
H        2.80615512       0.00000000      14.58243212        1       1.00000000       0.00000000       0.00000000       0.00000000
H        1.40307756       2.43020162      14.58243212        1       1.00000000       0.00000000       0.00000000       0.00000000
H        4.20923268       2.43020162      14.58243212        1       1.00000000       0.00000000       0.00000000       0.00000000
H        3.28923743       4.29308882      16.55860578        0       1.00000000      -2.04371567       0.16299680       0.08209044
H        4.01986468       4.20743291      21.27755674        0       1.00000000      -0.17053308      -0.01832826      -0.89505464
H        4.61925675       2.96702947       3.97621575        0       1.00000000       1.47002998      -0.56548665      -1.50573179
H        0.78467721       1.83728985      23.55544412        0       1.00000000       0.55984110      -1.04719128       1.07611840
H        0.07419641       0.61462870      21.76947699        0       1.00000000       0.31345570      -0.43545790      -1.15885441
H        4.62647082       0.33352730      19.13895762        0       1.00000000       2.21239510       0.97677678      -3.28846845
H        4.78912372       1.39641430       2.14093763        0       1.00000000       1.54061157       3.13373896      -1.21678365
H        5.19970956       0.78525444       5.44475742        0       1.00000000      -1.88293242      -0.75900172      -0.36506877
H        2.82626096       0.48081898       0.87703137        0       1.00000000       0.04158082      -1.12490969      -1.24715505
21
Lattice="5.612310241546866 0.0 0.0 0.0 4.860403243099165 0.0 0.0 0.0 24.582432123328676" Properties=species:S:1:pos:R:3:tags:I:1:masses:R:1:momenta:R:3 KEmax=27.14459056223422 iter=499 volume=670.5618179858607 ns_energy=16.960099681832837 last_walked_iter_clone=390 ns_P=0.0 config_n_global=499 ns_KE=25.438335710654055 pbc="T T T"
H        1.40307756       0.81006721      10.00000000        3       1.00000000       0.00000000       0.00000000       0.00000000
H        4.20923268       0.81006721      10.00000000        3       1.00000000       0.00000000       0.00000000       0.00000000
H        0.00000000       3.24026883      10.00000000        3       1.00000000       0.00000000       0.00000000       0.00000000
H        2.80615512       3.24026883      10.00000000        3       1.00000000       0.00000000       0.00000000       0.00000000
H        0.00000000       1.62013441      12.29121606        2       1.00000000       0.00000000       0.00000000       0.00000000
H        2.80615512       1.62013441      12.29121606        2       1.00000000       0.00000000       0.00000000       0.00000000
H        1.40307756       4.05033604      12.29121606        2       1.00000000       0.00000000       0.00000000       0.00000000
H        4.20923268       4.05033604      12.29121606        2       1.00000000       0.00000000       0.00000000       0.00000000
H        0.00000000       0.00000000      14.58243212        1       1.00000000       0.00000000       0.00000000       0.00000000
H        2.80615512       0.00000000      14.58243212        1       1.00000000       0.00000000       0.00000000       0.00000000
H        1.40307756       2.43020162      14.58243212        1       1.00000000       0.00000000       0.00000000       0.00000000
H        4.20923268       2.43020162      14.58243212        1       1.00000000       0.00000000       0.00000000       0.00000000
H        3.41512631       3.89964591      16.58763630        0       1.00000000      -2.57164728      -0.54931451       0.93291842
H        4.17619330       3.85557346      21.23168688        0       1.00000000      -0.38605062       1.59764642      -1.79503754
H        4.39511799       3.77183707       4.66373210        0       1.00000000      -0.65699854      -0.92937801       0.88541262
H        1.26545072       2.28644086      24.22356794        0       1.00000000       0.59871351      -0.25175434       1.08737050
H        0.58664084       1.49746821      21.54203755        0       1.00000000      -0.52290254      -0.21213381      -2.38401282
H        3.31512760       4.45366810      19.12079440        0       1.00000000      -0.92296904      -0.27858917      -1.30469229
H        4.64272073       1.13540637       3.35069941        0       1.00000000       2.06710785       1.80283279       1.10754124
H        1.05585428       2.53763263       5.89128104        0       1.00000000       2.12031724       2.23985791       0.71396268
H        2.15645753       0.98325638       2.64541571        0       1.00000000      -2.33408171      -0.37593974       0.69916528
21
Lattice="5.612310241546866 0.0 0.0 0.0 4.860403243099165 0.0 0.0 0.0 24.582432123328676" Properties=species:S:1:pos:R:3:tags:I:1:masses:R:1:momenta:R:3 KEmax=27.14459056223422 iter=599 volume=670.5618179858607 ns_energy=15.449356486104282 last_walked_iter_clone=437 ns_P=0.0 config_n_global=599 ns_KE=23.7413598197358 pbc="T T T"
H        1.40307756       0.81006721      10.00000000        3       1.00000000       0.00000000       0.00000000       0.00000000
H        4.20923268       0.81006721      10.00000000        3       1.00000000       0.00000000       0.00000000       0.00000000
H        0.00000000       3.24026883      10.00000000        3       1.00000000       0.00000000       0.00000000       0.00000000
H        2.80615512       3.24026883      10.00000000        3       1.00000000       0.00000000       0.00000000       0.00000000
H        0.00000000       1.62013441      12.29121606        2       1.00000000       0.00000000       0.00000000       0.00000000
H        2.80615512       1.62013441      12.29121606        2       1.00000000       0.00000000       0.00000000       0.00000000
H        1.40307756       4.05033604      12.29121606        2       1.00000000       0.00000000       0.00000000       0.00000000
H        4.20923268       4.05033604      12.29121606        2       1.00000000       0.00000000       0.00000000       0.00000000
H        0.00000000       0.00000000      14.58243212        1       1.00000000       0.00000000       0.00000000       0.00000000
H        2.80615512       0.00000000      14.58243212        1       1.00000000       0.00000000       0.00000000       0.00000000
H        1.40307756       2.43020162      14.58243212        1       1.00000000       0.00000000       0.00000000       0.00000000
H        4.20923268       2.43020162      14.58243212        1       1.00000000       0.00000000       0.00000000       0.00000000
H        5.34182902       0.27026915      18.10330891        0       1.00000000       2.26292234       1.54638850       1.38872707
H        3.34003470       2.95995588      22.83134874        0       1.00000000      -1.26959390       0.06908950      -0.87307901
H        4.55081559       4.37599924       5.62850027        0       1.00000000       1.30197162      -0.68483759       0.58660188
H        1.24177601       1.78109783       0.61800582        0       1.00000000       0.80365989      -2.78688553       2.05453064
H        0.49153285       1.76396423      21.85848453        0       1.00000000       0.56198813       1.34221816      -0.67110296
H        3.72447658       0.77159756      19.85712222        0       1.00000000       1.14826164       1.36056173      -0.15774762
H        4.93053386       0.28838830       2.23423647        0       1.00000000       0.60377182      -0.33834797      -0.75611523
H        5.29672853       1.95282451       6.20233154        0       1.00000000      -0.63985441       2.01207858       0.79619995
H        2.90199319       1.40199066       2.40789717        0       1.00000000       2.52714915      -0.58456130       1.37410787
21
Lattice="5.612310241546866 0.0 0.0 0.0 4.860403243099165 0.0 0.0 0.0 24.582432123328676" Properties=species:S:1:pos:R:3:tags:I:1:masses:R:1:momenta:R:3 KEmax=27.14459056223422 iter=699 volume=670.5618179858607 ns_energy=14.203008877627385 last_walked_iter_clone=531 ns_P=0.0 config_n_global=699 ns_KE=21.019290144015024 pbc="T T T"
H        1.40307756       0.81006721      10.00000000        3       1.00000000       0.00000000       0.00000000       0.00000000
H        4.20923268       0.81006721      10.00000000        3       1.00000000       0.00000000       0.00000000       0.00000000
H        0.00000000       3.24026883      10.00000000        3       1.00000000       0.00000000       0.00000000       0.00000000
H        2.80615512       3.24026883      10.00000000        3       1.00000000       0.00000000       0.00000000       0.00000000
H        0.00000000       1.62013441      12.29121606        2       1.00000000       0.00000000       0.00000000       0.00000000
H        2.80615512       1.62013441      12.29121606        2       1.00000000       0.00000000       0.00000000       0.00000000
H        1.40307756       4.05033604      12.29121606        2       1.00000000       0.00000000       0.00000000       0.00000000
H        4.20923268       4.05033604      12.29121606        2       1.00000000       0.00000000       0.00000000       0.00000000
H        0.00000000       0.00000000      14.58243212        1       1.00000000       0.00000000       0.00000000       0.00000000
H        2.80615512       0.00000000      14.58243212        1       1.00000000       0.00000000       0.00000000       0.00000000
H        1.40307756       2.43020162      14.58243212        1       1.00000000       0.00000000       0.00000000       0.00000000
H        4.20923268       2.43020162      14.58243212        1       1.00000000       0.00000000       0.00000000       0.00000000
H        0.43026263       4.75697700      20.60514738        0       1.00000000      -0.56436765       0.98568170      -1.90259253
H        4.32142441       2.21750848       3.43275514        0       1.00000000       3.45842076      -0.30305688      -0.21738520
H        5.20124023       0.49980010       2.65287889        0       1.00000000       1.67407773       1.49743341      -0.68274250
H        4.08100059       4.75015299       4.85234077        0       1.00000000      -0.29445805       1.03200658       1.45931538
H        2.68430576       3.78882721      17.48390881        0       1.00000000       1.47815555      -0.56284963      -1.38754952
H        2.24669647       4.35081412       1.28637782        0       1.00000000       0.15547330      -0.48915964       1.91410112
H        5.53365964       2.14635180      23.39774026        0       1.00000000      -0.03700991       1.45790770      -0.67518960
H        2.73546890       2.06323724      20.09682165        0       1.00000000      -0.16608363       0.61185283      -1.34081067
H        4.11177411       1.15456437       7.34945061        0       1.00000000       1.06104089       0.06668190      -1.40340789
21
Lattice="5.612310241546866 0.0 0.0 0.0 4.860403243099165 0.0 0.0 0.0 24.582432123328676" Properties=species:S:1:pos:R:3:tags:I:1:masses:R:1:momenta:R:3 KEmax=27.14459056223422 iter=799 volume=670.5618179858607 ns_energy=13.0903119438777 last_walked_iter_clone=724 ns_P=0.0 config_n_global=799 ns_KE=21.748667851202992 pbc="T T T"
H        1.40307756       0.81006721      10.00000000        3       1.00000000       0.00000000       0.00000000       0.00000000
H        4.20923268       0.81006721      10.00000000        3       1.00000000       0.00000000       0.00000000       0.00000000
H        0.00000000       3.24026883      10.00000000        3       1.00000000       0.00000000       0.00000000       0.00000000
H        2.80615512       3.24026883      10.00000000        3       1.00000000       0.00000000       0.00000000       0.00000000
H        0.00000000       1.62013441      12.29121606        2       1.00000000       0.00000000       0.00000000       0.00000000
H        2.80615512       1.62013441      12.29121606        2       1.00000000       0.00000000       0.00000000       0.00000000
H        1.40307756       4.05033604      12.29121606        2       1.00000000       0.00000000       0.00000000       0.00000000
H        4.20923268       4.05033604      12.29121606        2       1.00000000       0.00000000       0.00000000       0.00000000
H        0.00000000       0.00000000      14.58243212        1       1.00000000       0.00000000       0.00000000       0.00000000
H        2.80615512       0.00000000      14.58243212        1       1.00000000       0.00000000       0.00000000       0.00000000
H        1.40307756       2.43020162      14.58243212        1       1.00000000       0.00000000       0.00000000       0.00000000
H        4.20923268       2.43020162      14.58243212        1       1.00000000       0.00000000       0.00000000       0.00000000
H        3.47716992       4.43659830       6.63813689        0       1.00000000       0.18295912       0.03044637      -1.94061000
H        5.49104638       0.42982688      18.82421209        0       1.00000000       0.60707432      -1.66135458       1.96519303
H        3.05117304       3.42073350      20.60369103        0       1.00000000      -1.52587206       1.11111231      -1.12629003
H        5.36537255       3.00155458      22.38257243        0       1.00000000       2.28805923      -1.01067846       0.39750597
H        1.68561334       4.57821763      22.83593885        0       1.00000000      -0.91798689       0.22369209       0.91283057
H        2.86794057       2.77497727      17.19716662        0       1.00000000       0.89801111       1.42791928       1.55029249
H        0.94660489       1.26187840       4.16604461        0       1.00000000      -1.44901997       1.54775088      -0.47470696
H        0.38056406       0.98351700      16.64811240        0       1.00000000      -0.02057061      -0.88400393      -1.18343093
H        1.01865567       3.98061377       2.05610931        0       1.00000000      -0.06494423      -0.39501968       2.72438797
21
Lattice="5.612310241546866 0.0 0.0 0.0 4.860403243099165 0.0 0.0 0.0 24.582432123328676" Properties=species:S:1:pos:R:3:tags:I:1:masses:R:1:momenta:R:3 KEmax=27.14459056223422 iter=899 volume=670.5618179858607 ns_energy=11.840617631175666 last_walked_iter_clone=775 ns_P=0.0 config_n_global=899 ns_KE=20.763206224096162 pbc="T T T"
H        1.40307756       0.81006721      10.00000000        3       1.00000000       0.00000000       0.00000000       0.00000000
H        4.20923268       0.81006721      10.00000000        3       1.00000000       0.00000000       0.00000000       0.00000000
H        0.00000000       3.24026883      10.00000000        3       1.00000000       0.00000000       0.00000000       0.00000000
H        2.80615512       3.24026883      10.00000000        3       1.00000000       0.00000000       0.00000000       0.00000000
H        0.00000000       1.62013441      12.29121606        2       1.00000000       0.00000000       0.00000000       0.00000000
H        2.80615512       1.62013441      12.29121606        2       1.00000000       0.00000000       0.00000000       0.00000000
H        1.40307756       4.05033604      12.29121606        2       1.00000000       0.00000000       0.00000000       0.00000000
H        4.20923268       4.05033604      12.29121606        2       1.00000000       0.00000000       0.00000000       0.00000000
H        0.00000000       0.00000000      14.58243212        1       1.00000000       0.00000000       0.00000000       0.00000000
H        2.80615512       0.00000000      14.58243212        1       1.00000000       0.00000000       0.00000000       0.00000000
H        1.40307756       2.43020162      14.58243212        1       1.00000000       0.00000000       0.00000000       0.00000000
H        4.20923268       2.43020162      14.58243212        1       1.00000000       0.00000000       0.00000000       0.00000000
H        2.64208219       1.52824185      22.91062860        0       1.00000000       0.87257986       0.86363505       0.82639701
H        3.46665094       4.80903333       2.21283515        0       1.00000000       2.56724632       0.10452609      -1.68618347
H        5.66056317       2.63163401      21.03125950        0       1.00000000       1.96970647       1.99488823      -0.02206793
H        3.08776558       0.22538173      20.53846878        0       1.00000000       0.83294640      -1.49585134      -0.62977179
H        0.79934686      -0.17586029       0.92037094        0       1.00000000       0.08730102      -1.10797657       0.32554450
H        1.05443669      -0.01962403      18.58743168        0       1.00000000      -1.00178957      -0.20946697      -0.69123264
H        2.77833968       2.40068808       5.17811092        0       1.00000000      -0.31922389      -0.55943868      -0.16417381
H        4.85836057       2.92949569      23.18495934        0       1.00000000       3.18998431       0.00394757      -1.43481920
H        3.28281295       1.83820224      17.35434682        0       1.00000000      -0.73169322       0.83658373      -1.38753762
21
Lattice="5.612310241546866 0.0 0.0 0.0 4.860403243099165 0.0 0.0 0.0 24.582432123328676" Properties=species:S:1:pos:R:3:tags:I:1:masses:R:1:momenta:R:3 KEmax=27.14459056223422 iter=999 volume=670.5618179858607 ns_energy=10.733172878895529 last_walked_iter_clone=847 ns_P=0.0 config_n_global=999 ns_KE=19.40581399549634 pbc="T T T"
H        1.40307756       0.81006721      10.00000000        3       1.00000000       0.00000000       0.00000000       0.00000000
H        4.20923268       0.81006721      10.00000000        3       1.00000000       0.00000000       0.00000000       0.00000000
H        0.00000000       3.24026883      10.00000000        3       1.00000000       0.00000000       0.00000000       0.00000000
H        2.80615512       3.24026883      10.00000000        3       1.00000000       0.00000000       0.00000000       0.00000000
H        0.00000000       1.62013441      12.29121606        2       1.00000000       0.00000000       0.00000000       0.00000000
H        2.80615512       1.62013441      12.29121606        2       1.00000000       0.00000000       0.00000000       0.00000000
H        1.40307756       4.05033604      12.29121606        2       1.00000000       0.00000000       0.00000000       0.00000000
H        4.20923268       4.05033604      12.29121606        2       1.00000000       0.00000000       0.00000000       0.00000000
H        0.00000000       0.00000000      14.58243212        1       1.00000000       0.00000000       0.00000000       0.00000000
H        2.80615512       0.00000000      14.58243212        1       1.00000000       0.00000000       0.00000000       0.00000000
H        1.40307756       2.43020162      14.58243212        1       1.00000000       0.00000000       0.00000000       0.00000000
H        4.20923268       2.43020162      14.58243212        1       1.00000000       0.00000000       0.00000000       0.00000000
H        1.24967972       3.40615324       8.09022820        0       1.00000000       1.78395558      -1.72064979      -0.82682591
H        1.90060366       1.25716468       0.60191934        0       1.00000000       0.71216981       0.38114749      -0.14525674