21
Lattice="5.612310241546866 0.0 0.0 0.0 4.860403243099165 0.0 0.0 0.0 24.582432123328676" Properties=species:S:1:pos:R:3:tags:I:1:masses:R:1:momenta:R:3:forces:R:3 KEmax=27.14459056223422 iter=59811 volume=670.5618179858607 ns_energy=-14.090599581880959 last_walked_iter_clone=59775 energy=-14.090601920351963 stress="0.009828971651778796 -7.503279907646043e-07 -3.2202144746250437e-06 -7.503279907646043e-07 0.009855996205822577 2.239018267112053e-06 -3.2202144746250437e-06 2.239018267112053e-06 0.004861241672240124" pbc="T T T"
H        1.40307756       0.81006721      10.00000000        3       1.00000000       0.00000000       0.00000000       0.00000000       0.00000000       0.00000000       0.00000000
H        4.20923268       0.81006721      10.00000000        3       1.00000000       0.00000000       0.00000000       0.00000000       0.00000000       0.00000000       0.00000000
H        0.00000000       3.24026883      10.00000000        3       1.00000000       0.00000000       0.00000000       0.00000000       0.00000000       0.00000000       0.00000000
H        2.80615512       3.24026883      10.00000000        3       1.00000000       0.00000000       0.00000000       0.00000000       0.00000000       0.00000000       0.00000000
H        0.00000000       1.62013441      12.29121606        2       1.00000000       0.00000000       0.00000000       0.00000000       0.00000000       0.00000000       0.00000000
H        2.80615512       1.62013441      12.29121606        2       1.00000000       0.00000000       0.00000000       0.00000000       0.00000000       0.00000000       0.00000000
H        1.40307756       4.05033604      12.29121606        2       1.00000000       0.00000000       0.00000000       0.00000000       0.00000000       0.00000000       0.00000000
H        4.20923268       4.05033604      12.29121606        2       1.00000000       0.00000000       0.00000000       0.00000000       0.00000000       0.00000000       0.00000000
H        0.00000000       0.00000000      14.58243212        1       1.00000000       0.00000000       0.00000000       0.00000000       0.00000000       0.00000000       0.00000000
H        2.80615512       0.00000000      14.58243212        1       1.00000000       0.00000000       0.00000000       0.00000000       0.00000000       0.00000000       0.00000000
H        1.40307756       2.43020162      14.58243212        1       1.00000000       0.00000000       0.00000000       0.00000000       0.00000000       0.00000000       0.00000000
H        4.20923268       2.43020162      14.58243212        1       1.00000000       0.00000000       0.00000000       0.00000000       0.00000000       0.00000000       0.00000000
H        2.80538068       1.62963174       7.75030226        0       1.00000000       0.00100286      -0.00056608      -0.00064765      -0.00114154       0.00041035       0.00008396
H        1.40280448       4.05053325      16.81105368        0       1.00000000      -0.00033845       0.00022862       0.00048150       0.00018947      -0.00006347      -0.00015747
H        5.61176827       1.62020909      16.81116200        0       1.00000000      -0.00015280      -0.00035614       0.00028455      -0.00114031       0.00049780       0.00077364
H        2.80582551       1.62022821      16.81104712        0       1.00000000      -0.00032117       0.00021349       0.00048277       0.00081569      -0.00044122       0.00060360
H        1.41024922       4.05453482       7.78609080        0       1.00000000       0.00066135       0.00074631      -0.00035490       0.00039513      -0.00073068       0.00130915
H        4.20187330       4.05460062       7.78545698        0       1.00000000      -0.00042979       0.00052410       0.00052653      -0.00001060       0.00049384      -0.00173778
H        4.20923522       4.05015648      16.81105492        0       1.00000000      -0.00002466       0.00022314      -0.00012874      -0.00005265      -0.00004139       0.00004000
H        5.61231425       3.23864038       5.56669034        0       1.00000000      -0.00018279       0.00017314      -0.00027680      -0.00068763       0.00028825      -0.00007173
H       -0.00041841       1.60355697       7.78130435        0       1.00000000      -0.00000636      -0.00022474      -0.00013135       0.00098737      -0.00012847      -0.00101035
21
Lattice="5.612310241546866 0.0 0.0 0.0 4.860403243099165 0.0 0.0 0.0 24.582432123328676" Properties=species:S:1:pos:R:3:tags:I:1:masses:R:1:momenta:R:3:forces:R:3 KEmax=27.14459056223422 iter=59811 volume=670.5618179858607 ns_energy=-14.090599229013337 last_walked_iter_clone=59742 energy=-14.090601920351963 stress="0.009828971651778796 -7.503279907646043e-07 -3.2202144746250437e-06 -7.503279907646043e-07 0.009855996205822577 2.239018267112053e-06 -3.2202144746250437e-06 2.239018267112053e-06 0.004861241672240124" pbc="T T T"
H        1.40307756       0.81006721      10.00000000        3       1.00000000       0.00000000       0.00000000       0.00000000       0.00000000       0.00000000       0.00000000
H        4.20923268       0.81006721      10.00000000        3       1.00000000       0.00000000       0.00000000       0.00000000       0.00000000       0.00000000       0.00000000
H        0.00000000       3.24026883      10.00000000        3       1.00000000       0.00000000       0.00000000       0.00000000       0.00000000       0.00000000       0.00000000
H        2.80615512       3.24026883      10.00000000        3       1.00000000       0.00000000       0.00000000       0.00000000       0.00000000       0.00000000       0.00000000
H        0.00000000       1.62013441      12.29121606        2       1.00000000       0.00000000       0.00000000       0.00000000       0.00000000       0.00000000       0.00000000
H        2.80615512       1.62013441      12.29121606        2       1.00000000       0.00000000       0.00000000       0.00000000       0.00000000       0.00000000       0.00000000
H        1.40307756       4.05033604      12.29121606        2       1.00000000       0.00000000       0.00000000       0.00000000       0.00000000       0.00000000       0.00000000
H        4.20923268       4.05033604      12.29121606        2       1.00000000       0.00000000       0.00000000       0.00000000       0.00000000       0.00000000       0.00000000
H        0.00000000       0.00000000      14.58243212        1       1.00000000       0.00000000       0.00000000       0.00000000       0.00000000       0.00000000       0.00000000
H        2.80615512       0.00000000      14.58243212        1       1.00000000       0.00000000       0.00000000       0.00000000       0.00000000       0.00000000       0.00000000
H        1.40307756       2.43020162      14.58243212        1       1.00000000       0.00000000       0.00000000       0.00000000       0.00000000       0.00000000       0.00000000
H        4.20923268       2.43020162      14.58243212        1       1.00000000       0.00000000       0.00000000       0.00000000       0.00000000       0.00000000       0.00000000
H        2.80654195       1.62973909       7.75004207        0       1.00000000      -0.00039708      -0.00013434      -0.00048489      -0.00114154       0.00041035       0.00008396
H        1.40345923       4.05034471      16.81139473        0       1.00000000       0.00013447      -0.00043231       0.00044929       0.00018947      -0.00006347      -0.00015747
H        5.61292144       1.62013396      16.81122682        0       1.00000000      -0.00011132       0.00088296       0.00013714      -0.00114031       0.00049780       0.00077364
H        2.80617866       1.61978611      16.81086691        0       1.00000000       0.00006988      -0.00022631       0.00014135       0.00081569      -0.00044122       0.00060360
H        1.41065721       4.05495356       7.78582618        0       1.00000000       0.00027538      -0.00060203       0.00002257       0.00039513      -0.00073068       0.00130915
H        4.20177650       4.05538410       7.78600054        0       1.00000000       0.00010675      -0.00031515      -0.00101015      -0.00001060       0.00049384      -0.00173778
H        4.20951016       4.05045822      16.81113481        0       1.00000000      -0.00010084      -0.00046860      -0.00024869      -0.00005265      -0.00004139       0.00004000
H        5.61173032       3.23873886       5.56746688        0       1.00000000      -0.00040440       0.00088089       0.00043667      -0.00068763       0.00028825      -0.00007173
H        0.00034882       1.60419386       7.78144828        0       1.00000000      -0.00000492       0.00071425       0.00002162       0.00098737      -0.00012847      -0.00101035
21
Lattice="5.612310241546866 0.0 0.0 0.0 4.860403243099165 0.0 0.0 0.0 24.582432123328676" Properties=species:S:1:pos:R:3:tags:I:1:masses:R:1:momenta:R:3:forces:R:3 KEmax=27.14459056223422 iter=59811 volume=670.5618179858607 ns_energy=-14.09059916615553 last_walked_iter_clone=59762 energy=-14.090601920351963 stress="0.009828971651778796 -7.503279907646043e-07 -3.2202144746250437e-06 -7.503279907646043e-07 0.009855996205822577 2.239018267112053e-06 -3.2202144746250437e-06 2.239018267112053e-06 0.004861241672240124" pbc="T T T"
H        1.40307756       0.81006721      10.00000000        3       1.00000000       0.00000000       0.00000000       0.00000000       0.00000000       0.00000000       0.00000000
H        4.20923268       0.81006721      10.00000000        3       1.00000000       0.00000000       0.00000000       0.00000000       0.00000000       0.00000000       0.00000000
H        0.00000000       3.24026883      10.00000000        3       1.00000000       0.00000000       0.00000000       0.00000000       0.00000000       0.00000000       0.00000000
H        2.80615512       3.24026883      10.00000000        3       1.00000000       0.00000000       0.00000000       0.00000000       0.00000000       0.00000000       0.00000000
H        0.00000000       1.62013441      12.29121606        2       1.00000000       0.00000000       0.00000000       0.00000000       0.00000000       0.00000000       0.00000000
H        2.80615512       1.62013441      12.29121606        2       1.00000000       0.00000000       0.00000000       0.00000000       0.00000000       0.00000000       0.00000000
H        1.40307756       4.05033604      12.29121606        2       1.00000000       0.00000000       0.00000000       0.00000000       0.00000000       0.00000000       0.00000000
H        4.20923268       4.05033604      12.29121606        2       1.00000000       0.00000000       0.00000000       0.00000000       0.00000000       0.00000000       0.00000000
H        0.00000000       0.00000000      14.58243212        1       1.00000000       0.00000000       0.00000000       0.00000000       0.00000000       0.00000000       0.00000000
H        2.80615512       0.00000000      14.58243212        1       1.00000000       0.00000000       0.00000000       0.00000000       0.00000000       0.00000000       0.00000000
H        1.40307756       2.43020162      14.58243212        1       1.00000000       0.00000000       0.00000000       0.00000000       0.00000000       0.00000000       0.00000000
H        4.20923268       2.43020162      14.58243212        1       1.00000000       0.00000000       0.00000000       0.00000000       0.00000000       0.00000000       0.00000000
H        2.80627905       1.62842248       7.75043181        0       1.00000000       0.00016819      -0.00039920      -0.00007711      -0.00114154       0.00041035       0.00008396
H        1.40270472       4.05031061      16.81113246        0       1.00000000      -0.00047137       0.00032692      -0.00032143       0.00018947      -0.00006347      -0.00015747
H       -0.00026400       1.62021607      16.81124586        0       1.00000000      -0.00068648       0.00001354      -0.00070706      -0.00114031       0.00049780       0.00077364
H        2.80600778       1.61990920      16.81156646        0       1.00000000      -0.00019221      -0.00006461       0.00016066       0.00081569      -0.00044122       0.00060360
H        1.41070846       4.05404847       7.78613918        0       1.00000000      -0.00003110      -0.00073399       0.00024075       0.00039513      -0.00073068       0.00130915
H        4.20180746       4.05398639       7.78670146        0       1.00000000      -0.00000348       0.00031686       0.00016029      -0.00001060       0.00049384      -0.00173778
H        4.20889782       4.05048856      16.81098956        0       1.00000000      -0.00012088       0.00046325       0.00021347      -0.00005265      -0.00004139       0.00004000
H        0.00086601       3.23848029       5.56818521        0       1.00000000      -0.00010502       0.00007924      -0.00072337      -0.00068763       0.00028825      -0.00007173
H       -0.00011142       1.60268546       7.78170915        0       1.00000000      -0.00037953       0.00058308      -0.00006737       0.00098737      -0.00012847      -0.00101035
21
Lattice="5.612310241546866 0.0 0.0 0.0 4.860403243099165 0.0 0.0 0.0 24.582432123328676" Properties=species:S:1:pos:R:3:tags:I:1:masses:R:1:momenta:R:3:forces:R:3 KEmax=27.14459056223422 iter=59811 volume=670.5618179858607 ns_energy=-14.090599162556158 last_walked_iter_clone=59707 energy=-14.090601920351963 stress="0.009828971651778796 -7.503279907646043e-07 -3.2202144746250437e-06 -7.503279907646043e-07 0.009855996205822577 2.239018267112053e-06 -3.2202144746250437e-06 2.239018267112053e-06 0.004861241672240124" pbc="T T T"
H        1.40307756       0.81006721      10.00000000        3       1.00000000       0.00000000       0.00000000       0.00000000       0.00000000       0.00000000       0.00000000
H        4.20923268       0.81006721      10.00000000        3       1.00000000       0.00000000       0.00000000       0.00000000       0.00000000       0.00000000       0.00000000
H        0.00000000       3.24026883      10.00000000        3       1.00000000       0.00000000       0.00000000       0.00000000       0.00000000       0.00000000       0.00000000
H        2.80615512       3.24026883      10.00000000        3       1.00000000       0.00000000       0.00000000       0.00000000       0.00000000       0.00000000       0.00000000
H        0.00000000       1.62013441      12.29121606        2       1.00000000       0.00000000       0.00000000       0.00000000       0.00000000       0.00000000       0.00000000
H        2.80615512       1.62013441      12.29121606        2       1.00000000       0.00000000       0.00000000       0.00000000       0.00000000       0.00000000       0.00000000
H        1.40307756       4.05033604      12.29121606        2       1.00000000       0.00000000       0.00000000       0.00000000       0.00000000       0.00000000       0.00000000
H        4.20923268       4.05033604      12.29121606        2       1.00000000       0.00000000       0.00000000       0.00000000       0.00000000       0.00000000       0.00000000
H        0.00000000       0.00000000      14.58243212        1       1.00000000       0.00000000       0.00000000       0.00000000       0.00000000       0.00000000       0.00000000
H        2.80615512       0.00000000      14.58243212        1       1.00000000       0.00000000       0.00000000       0.00000000       0.00000000       0.00000000       0.00000000
H        1.40307756       2.43020162      14.58243212        1       1.00000000       0.00000000       0.00000000       0.00000000       0.00000000       0.00000000       0.00000000
H        4.20923268       2.43020162      14.58243212        1       1.00000000       0.00000000       0.00000000       0.00000000       0.00000000       0.00000000       0.00000000
H        2.80578100       1.62946920       7.74970119        0       1.00000000       0.00022629       0.00059309       0.00010558      -0.00114154       0.00041035       0.00008396
H        1.40357937       4.05021541      16.81063659        0       1.00000000       0.00021127       0.00017871      -0.00003836       0.00018947      -0.00006347      -0.00015747
H        5.61274721       1.61980354      16.81101398        0       1.00000000      -0.00067490       0.00021286      -0.00050338      -0.00114031       0.00049780       0.00077364
H        2.80659067       1.61971396      16.81088038        0       1.00000000       0.00014071       0.00000076       0.00034731       0.00081569      -0.00044122       0.00060360
H        1.41060028       4.05458504       7.78595135        0       1.00000000       0.00032998       0.00014649      -0.00007701       0.00039513      -0.00073068       0.00130915
H        4.20204831       4.05419639       7.78612228        0       1.00000000       0.00022886      -0.00019738      -0.00034898      -0.00001060       0.00049384      -0.00173778
H        4.20966306       4.05041040      16.81105760        0       1.00000000       0.00119307      -0.00036390      -0.00063859      -0.00005265      -0.00004139       0.00004000
H        5.61225464       3.23848527       5.56742810        0       1.00000000      -0.00002154      -0.00013406      -0.00072805      -0.00068763       0.00028825      -0.00007173
H        5.61192493       1.60272571       7.78136566        0       1.00000000       0.00044207      -0.00017751      -0.00014949       0.00098737      -0.00012847      -0.00101035
21
Lattice="5.612310241546866 0.0 0.0 0.0 4.860403243099165 0.0 0.0 0.0 24.582432123328676" Properties=species:S:1:pos:R:3:tags:I:1:masses:R:1:momenta:R:3:forces:R:3 KEmax=27.14459056223422 iter=59811 volume=670.5618179858607 ns_energy=-14.090599225704123 last_walked_iter_clone=59565 energy=-14.090601920351963 stress="0.009828971651778796 -7.503279907646043e-07 -3.2202144746250437e-06 -7.503279907646043e-07 0.009855996205822577 2.239018267112053e-06 -3.2202144746250437e-06 2.239018267112053e-06 0.004861241672240124" pbc="T T T"
H        1.40307756       0.81006721      10.00000000        3       1.00000000       0.00000000       0.00000000       0.00000000       0.00000000       0.00000000       0.00000000
H        4.20923268       0.81006721      10.00000000        3       1.00000000       0.00000000       0.00000000       0.00000000       0.00000000       0.00000000       0.00000000
H        0.00000000       3.24026883      10.00000000        3       1.00000000       0.00000000       0.00000000       0.00000000       0.00000000       0.00000000       0.00000000
H        2.80615512       3.24026883      10.00000000        3       1.00000000       0.00000000       0.00000000       0.00000000       0.00000000       0.00000000       0.00000000
H        0.00000000       1.62013441      12.29121606        2       1.00000000       0.00000000       0.00000000       0.00000000       0.00000000       0.00000000       0.00000000
H        2.80615512       1.62013441      12.29121606        2       1.00000000       0.00000000       0.00000000       0.00000000       0.00000000       0.00000000       0.00000000
H        1.40307756       4.05033604      12.29121606        2       1.00000000       0.00000000       0.00000000       0.00000000       0.00000000       0.00000000       0.00000000
H        4.20923268       4.05033604      12.29121606        2       1.00000000       0.00000000       0.00000000       0.00000000       0.00000000       0.00000000       0.00000000
H        0.00000000       0.00000000      14.58243212        1       1.00000000       0.00000000       0.00000000       0.00000000       0.00000000       0.00000000       0.00000000
H        2.80615512       0.00000000      14.58243212        1       1.00000000       0.00000000       0.00000000       0.00000000       0.00000000       0.00000000       0.00000000
H        1.40307756       2.43020162      14.58243212        1       1.00000000       0.00000000       0.00000000       0.00000000       0.00000000       0.00000000       0.00000000
H        4.20923268       2.43020162      14.58243212        1       1.00000000       0.00000000       0.00000000       0.00000000       0.00000000       0.00000000       0.00000000
H        2.80630836       1.62923059       7.75015462        0       1.00000000      -0.00003665       0.00022494       0.00007633      -0.00114154       0.00041035       0.00008396
H        1.40335619       4.05059448      16.81124786        0       1.00000000      -0.00033341       0.00044322      -0.00029058       0.00018947      -0.00006347      -0.00015747
H        5.61238007       1.62056749      16.81055184        0       1.00000000      -0.00025945       0.00000021       0.00013889      -0.00114031       0.00049780       0.00077364
H        2.80614703       1.62059741      16.81082616        0       1.00000000       0.00048872      -0.00044739      -0.00050918       0.00081569      -0.00044122       0.00060360
H        1.40983372       4.05464710       7.78551664        0       1.00000000      -0.00000191      -0.00060271      -0.00026929       0.00039513      -0.00073068       0.00130915
H        4.20189737       4.05410849       7.78613117        0       1.00000000      -0.00025368       0.00081196      -0.00029421      -0.00001060       0.00049384      -0.00173778
H        4.20942766       4.05029737      16.81096692        0       1.00000000      -0.00044193       0.00024872       0.00042613      -0.00005265      -0.00004139       0.00004000
H       -0.00095207       3.23865232       5.56686650        0       1.00000000      -0.00055556      -0.00054715       0.00034142      -0.00068763       0.00028825      -0.00007173
H       -0.00024029       1.60384905       7.78140857        0       1.00000000      -0.00042204      -0.00032144       0.00047854       0.00098737      -0.00012847      -0.00101035
21
Lattice="5.612310241546866 0.0 0.0 0.0 4.860403243099165 0.0 0.0 0.0 24.582432123328676" Properties=species:S:1:pos:R:3:tags:I:1:masses:R:1:momenta:R:3:forces:R:3 KEmax=27.14459056223422 iter=59811 volume=670.5618179858607 ns_energy=-14.090599311669761 last_walked_iter_clone=59736 energy=-14.090601920351963 stress="0.009828971651778796 -7.503279907646043e-07 -3.2202144746250437e-06 -7.503279907646043e-07 0.009855996205822577 2.239018267112053e-06 -3.2202144746250437e-06 2.239018267112053e-06 0.004861241672240124" pbc="T T T"
H        1.40307756       0.81006721      10.00000000        3       1.00000000       0.00000000       0.00000000       0.00000000       0.00000000       0.00000000       0.00000000
H        4.20923268       0.81006721      10.00000000        3       1.00000000       0.00000000       0.00000000       0.00000000       0.00000000       0.00000000       0.00000000
H        0.00000000       3.24026883      10.00000000        3       1.00000000       0.00000000       0.00000000       0.00000000       0.00000000       0.00000000       0.00000000
H        2.80615512       3.24026883      10.00000000        3       1.00000000       0.00000000       0.00000000       0.00000000       0.00000000       0.00000000       0.00000000
H        0.00000000       1.62013441      12.29121606        2       1.00000000       0.00000000       0.00000000       0.00000000       0.00000000       0.00000000       0.00000000
H        2.80615512       1.62013441      12.29121606        2       1.00000000       0.00000000       0.00000000       0.00000000       0.00000000       0.00000000       0.00000000
H        1.40307756       4.05033604      12.29121606        2       1.00000000       0.00000000       0.00000000       0.00000000       0.00000000       0.00000000       0.00000000
H        4.20923268       4.05033604      12.29121606        2       1.00000000       0.00000000       0.00000000       0.00000000       0.00000000       0.00000000       0.00000000
H        0.00000000       0.00000000      14.58243212        1       1.00000000       0.00000000       0.00000000       0.00000000       0.00000000       0.00000000       0.00000000
H        2.80615512       0.00000000      14.58243212        1       1.00000000       0.00000000       0.00000000       0.00000000       0.00000000       0.00000000       0.00000000
H        1.40307756       2.43020162      14.58243212        1       1.00000000       0.00000000       0.00000000       0.00000000       0.00000000       0.00000000       0.00000000
H        4.20923268       2.43020162      14.58243212        1       1.00000000       0.00000000       0.00000000       0.00000000       0.00000000       0.00000000       0.00000000
H        2.80623325       1.62937695       7.75046517        0       1.00000000       0.00047154       0.00014060       0.00003133      -0.00114154       0.00041035       0.00008396
H        1.40344978       4.05064666      16.81145546        0       1.00000000       0.00031829       0.00059705       0.00009296       0.00018947      -0.00006347      -0.00015747
H        0.00011927       1.62028759      16.81137259        0       1.00000000      -0.00013925      -0.00063731       0.00061157      -0.00114031       0.00049780       0.00077364
H        2.80612605       1.62037818      16.81113679        0       1.00000000       0.00001751      -0.00002258      -0.00004377       0.00081569      -0.00044122       0.00060360
H        1.41111761       4.05388528       7.78620784        0       1.00000000      -0.00020029       0.00069253       0.00056697       0.00039513      -0.00073068       0.00130915
H        4.20219445       4.05433717       7.78590171        0       1.00000000       0.00058135      -0.00025162      -0.00042024      -0.00001060       0.00049384      -0.00173778
H        4.20934514       4.05023884      16.81110135        0       1.00000000      -0.00023675       0.00009764       0.00031170      -0.00005265      -0.00004139       0.00004000
H        5.61275927       3.23889758       5.56776158        0       1.00000000      -0.00012084      -0.00017138      -0.00008057      -0.00068763       0.00028825      -0.00007173
H       -0.00029111       1.60340960       7.78158464        0       1.00000000      -0.00015723       0.00106824      -0.00022797       0.00098737      -0.00012847      -0.00101035
21
Lattice="5.612310241546866 0.0 0.0 0.0 4.860403243099165 0.0 0.0 0.0 24.582432123328676" Properties=species:S:1:pos:R:3:tags:I:1:masses:R:1:momenta:R:3:forces:R:3 KEmax=27.14459056223422 iter=59811 volume=670.5618179858607 ns_energy=-14.090599228952923 last_walked_iter_clone=59805 energy=-14.090601920351963 stress="0.009828971651778796 -7.503279907646043e-07 -3.2202144746250437e-06 -7.503279907646043e-07 0.009855996205822577 2.239018267112053e-06 -3.2202144746250437e-06 2.239018267112053e-06 0.004861241672240124" pbc="T T T"
H        1.40307756       0.81006721      10.00000000        3       1.00000000       0.00000000       0.00000000       0.00000000       0.00000000       0.00000000       0.00000000
H        4.20923268       0.81006721      10.00000000        3       1.00000000       0.00000000       0.00000000       0.00000000       0.00000000       0.00000000       0.00000000
H        0.00000000       3.24026883      10.00000000        3       1.00000000       0.00000000       0.00000000       0.00000000       0.00000000       0.00000000       0.00000000
H        2.80615512       3.24026883      10.00000000        3       1.00000000       0.00000000       0.00000000       0.00000000       0.00000000       0.00000000       0.00000000
H        0.00000000       1.62013441      12.29121606        2       1.00000000       0.00000000       0.00000000       0.00000000       0.00000000       0.00000000       0.00000000
H        2.80615512       1.62013441      12.29121606        2       1.00000000       0.00000000       0.00000000       0.00000000       0.00000000       0.00000000       0.00000000
H        1.40307756       4.05033604      12.29121606        2       1.00000000       0.00000000       0.00000000       0.00000000       0.00000000       0.00000000       0.00000000
H        4.20923268       4.05033604      12.29121606        2       1.00000000       0.00000000       0.00000000       0.00000000       0.00000000       0.00000000       0.00000000
H        0.00000000       0.00000000      14.58243212        1       1.00000000       0.00000000       0.00000000       0.00000000       0.00000000       0.00000000       0.00000000
H        2.80615512       0.00000000      14.58243212        1       1.00000000       0.00000000       0.00000000       0.00000000       0.00000000       0.00000000       0.00000000
H        1.40307756       2.43020162      14.58243212        1       1.00000000       0.00000000       0.00000000       0.00000000       0.00000000       0.00000000       0.00000000
H        4.20923268       2.43020162      14.58243212        1       1.00000000       0.00000000       0.00000000       0.00000000       0.00000000       0.00000000       0.00000000
H        2.80619957       1.62885045       7.74995820        0       1.00000000       0.00017389      -0.00011192      -0.00019747      -0.00114154       0.00041035       0.00008396
H        1.40334201       4.05031668      16.81095384        0       1.00000000       0.00028377       0.00001981      -0.00084918       0.00018947      -0.00006347      -0.00015747
H        0.00059256       1.62012936      16.81098359        0       1.00000000      -0.00026507       0.00015821      -0.00010036      -0.00114031       0.00049780       0.00077364
H        2.80688999       1.61995774      16.81112211        0       1.00000000      -0.00027222       0.00054030       0.00026356       0.00081569      -0.00044122       0.00060360
H        1.41058335       4.05442593       7.78533249        0       1.00000000      -0.00002363       0.00033477       0.00044117       0.00039513      -0.00073068       0.00130915
H        4.20203747       4.05412926       7.78672157        0       1.00000000       0.00005531       0.00110745       0.00033412      -0.00001060       0.00049384      -0.00173778