21
Lattice="5.612310241546866 0.0 0.0 0.0 4.860403243099165 0.0 0.0 0.0 24.582432123328676" Properties=species:S:1:pos:R:3:tags:I:1:masses:R:1:momenta:R:3:forces:R:3 KEmax=27.14459056223422 iter=90743 volume=670.5618179858607 ns_energy=-14.090604118418172 last_walked_iter_clone=90549 energy=-14.090604119177884 stress="0.009830864365894964 1.6971276233977104e-08 -8.098054224905184e-09 1.6971276233977104e-08 0.009858198098452628 7.120342287451364e-09 -8.098054224905184e-09 7.120342287451364e-09 0.004870223697420014" pbc="T T T"
H        1.40307756       0.81006721      10.00000000        3       1.00000000       0.00000000       0.00000000       0.00000000       0.00000000       0.00000000       0.00000000
H        4.20923268       0.81006721      10.00000000        3       1.00000000       0.00000000       0.00000000       0.00000000       0.00000000       0.00000000       0.00000000
H        0.00000000       3.24026883      10.00000000        3       1.00000000       0.00000000       0.00000000       0.00000000       0.00000000       0.00000000       0.00000000
H        2.80615512       3.24026883      10.00000000        3       1.00000000       0.00000000       0.00000000       0.00000000       0.00000000       0.00000000       0.00000000
H        0.00000000       1.62013441      12.29121606        2       1.00000000       0.00000000       0.00000000       0.00000000       0.00000000       0.00000000       0.00000000
H        2.80615512       1.62013441      12.29121606        2       1.00000000       0.00000000       0.00000000       0.00000000       0.00000000       0.00000000       0.00000000
H        1.40307756       4.05033604      12.29121606        2       1.00000000       0.00000000       0.00000000       0.00000000       0.00000000       0.00000000       0.00000000
H        4.20923268       4.05033604      12.29121606        2       1.00000000       0.00000000       0.00000000       0.00000000       0.00000000       0.00000000       0.00000000
H        0.00000000       0.00000000      14.58243212        1       1.00000000       0.00000000       0.00000000       0.00000000       0.00000000       0.00000000       0.00000000
H        2.80615512       0.00000000      14.58243212        1       1.00000000       0.00000000       0.00000000       0.00000000       0.00000000       0.00000000       0.00000000
H        1.40307756       2.43020162      14.58243212        1       1.00000000       0.00000000       0.00000000       0.00000000       0.00000000       0.00000000       0.00000000
H        4.20923268       2.43020162      14.58243212        1       1.00000000       0.00000000       0.00000000       0.00000000       0.00000000       0.00000000       0.00000000
H        2.80615482       1.62928169       7.75018065        0       1.00000000      -0.00000873       0.00000171       0.00000856      -0.00000769       0.00001813      -0.00001208
H        1.40308023       4.05033415      16.81105983        0       1.00000000      -0.00001668       0.00000060       0.00000313       0.00000321      -0.00000560      -0.00001414
H        0.00000316       1.62013382      16.81106996        0       1.00000000       0.00000793      -0.00000611       0.00000952       0.00000564       0.00000351      -0.00001811
H        2.80615985       1.62013011      16.81106348        0       1.00000000      -0.00001545      -0.00000292      -0.00000754      -0.00000437       0.00000704       0.00000121
H        1.41043738       4.05449258       7.78609509        0       1.00000000      -0.00000476      -0.00000757      -0.00001246       0.00001092      -0.00003067      -0.00001776
H        4.20186152       4.05449133       7.78609439        0       1.00000000       0.00000293       0.00000110       0.00000313      -0.00003451       0.00000072       0.00001957
H        4.20923773       4.05033158      16.81106293        0       1.00000000      -0.00000258      -0.00000916      -0.00001287      -0.00000455      -0.00001135      -0.00000490
H       -0.00001579       3.23888605       5.56739896        0       1.00000000      -0.00000586      -0.00000005       0.00000605       0.00000652      -0.00000335       0.00000272
H       -0.00000862       1.60353408       7.78137252        0       1.00000000       0.00000989       0.00000812      -0.00001162       0.00001581       0.00001439      -0.00001858
21
Lattice="5.612310241546866 0.0 0.0 0.0 4.860403243099165 0.0 0.0 0.0 24.582432123328676" Properties=species:S:1:pos:R:3:tags:I:1:masses:R:1:momenta:R:3:forces:R:3 KEmax=27.14459056223422 iter=90743 volume=670.5618179858607 ns_energy=-14.090604118423789 last_walked_iter_clone=90672 energy=-14.090604119177884 stress="0.009830864365894964 1.6971276233977104e-08 -8.098054224905184e-09 1.6971276233977104e-08 0.009858198098452628 7.120342287451364e-09 -8.098054224905184e-09 7.120342287451364e-09 0.004870223697420014" pbc="T T T"
H        1.40307756       0.81006721      10.00000000        3       1.00000000       0.00000000       0.00000000       0.00000000       0.00000000       0.00000000       0.00000000
H        4.20923268       0.81006721      10.00000000        3       1.00000000       0.00000000       0.00000000       0.00000000       0.00000000       0.00000000       0.00000000
H        0.00000000       3.24026883      10.00000000        3       1.00000000       0.00000000       0.00000000       0.00000000       0.00000000       0.00000000       0.00000000
H        2.80615512       3.24026883      10.00000000        3       1.00000000       0.00000000       0.00000000       0.00000000       0.00000000       0.00000000       0.00000000
H        0.00000000       1.62013441      12.29121606        2       1.00000000       0.00000000       0.00000000       0.00000000       0.00000000       0.00000000       0.00000000
H        2.80615512       1.62013441      12.29121606        2       1.00000000       0.00000000       0.00000000       0.00000000       0.00000000       0.00000000       0.00000000
H        1.40307756       4.05033604      12.29121606        2       1.00000000       0.00000000       0.00000000       0.00000000       0.00000000       0.00000000       0.00000000
H        4.20923268       4.05033604      12.29121606        2       1.00000000       0.00000000       0.00000000       0.00000000       0.00000000       0.00000000       0.00000000
H        0.00000000       0.00000000      14.58243212        1       1.00000000       0.00000000       0.00000000       0.00000000       0.00000000       0.00000000       0.00000000
H        2.80615512       0.00000000      14.58243212        1       1.00000000       0.00000000       0.00000000       0.00000000       0.00000000       0.00000000       0.00000000
H        1.40307756       2.43020162      14.58243212        1       1.00000000       0.00000000       0.00000000       0.00000000       0.00000000       0.00000000       0.00000000
H        4.20923268       2.43020162      14.58243212        1       1.00000000       0.00000000       0.00000000       0.00000000       0.00000000       0.00000000       0.00000000
H        2.80615884       1.62930434       7.75018736        0       1.00000000      -0.00000522      -0.00000001      -0.00001214      -0.00000769       0.00001813      -0.00001208
H        1.40307893       4.05033544      16.81106155        0       1.00000000      -0.00001580       0.00000691       0.00000235       0.00000321      -0.00000560      -0.00001414
H       -0.00001051       1.62014035      16.81106975        0       1.00000000       0.00000243       0.00000742       0.00000558       0.00000564       0.00000351      -0.00001811
H        2.80614096       1.62012864      16.81106656        0       1.00000000      -0.00000031      -0.00000428       0.00000468      -0.00000437       0.00000704       0.00000121
H        1.41044053       4.05450252       7.78609100        0       1.00000000       0.00001096       0.00000254       0.00000930       0.00001092      -0.00003067      -0.00001776
H        4.20186882       4.05450329       7.78610177        0       1.00000000      -0.00000750      -0.00000632      -0.00000686      -0.00003451       0.00000072       0.00001957
H        4.20922478       4.05033274      16.81106340        0       1.00000000      -0.00000221       0.00000091      -0.00001094      -0.00000455      -0.00001135      -0.00000490
H        5.61229708       3.23887177       5.56739796        0       1.00000000      -0.00000699      -0.00000437      -0.00000332       0.00000652      -0.00000335       0.00000272
H       -0.00000224       1.60353809       7.78137897        0       1.00000000       0.00000254      -0.00000400       0.00000578       0.00001581       0.00001439      -0.00001858
21
Lattice="5.612310241546866 0.0 0.0 0.0 4.860403243099165 0.0 0.0 0.0 24.582432123328676" Properties=species:S:1:pos:R:3:tags:I:1:masses:R:1:momenta:R:3:forces:R:3 KEmax=27.14459056223422 iter=90743 volume=670.5618179858607 ns_energy=-14.090604118415404 last_walked_iter_clone=90706 energy=-14.090604119177884 stress="0.009830864365894964 1.6971276233977104e-08 -8.098054224905184e-09 1.6971276233977104e-08 0.009858198098452628 7.120342287451364e-09 -8.098054224905184e-09 7.120342287451364e-09 0.004870223697420014" pbc="T T T"
H        1.40307756       0.81006721      10.00000000        3       1.00000000       0.00000000       0.00000000       0.00000000       0.00000000       0.00000000       0.00000000
H        4.20923268       0.81006721      10.00000000        3       1.00000000       0.00000000       0.00000000       0.00000000       0.00000000       0.00000000       0.00000000
H        0.00000000       3.24026883      10.00000000        3       1.00000000       0.00000000       0.00000000       0.00000000       0.00000000       0.00000000       0.00000000
H        2.80615512       3.24026883      10.00000000        3       1.00000000       0.00000000       0.00000000       0.00000000       0.00000000       0.00000000       0.00000000
H        0.00000000       1.62013441      12.29121606        2       1.00000000       0.00000000       0.00000000       0.00000000       0.00000000       0.00000000       0.00000000
H        2.80615512       1.62013441      12.29121606        2       1.00000000       0.00000000       0.00000000       0.00000000       0.00000000       0.00000000       0.00000000
H        1.40307756       4.05033604      12.29121606        2       1.00000000       0.00000000       0.00000000       0.00000000       0.00000000       0.00000000       0.00000000
H        4.20923268       4.05033604      12.29121606        2       1.00000000       0.00000000       0.00000000       0.00000000       0.00000000       0.00000000       0.00000000
H        0.00000000       0.00000000      14.58243212        1       1.00000000       0.00000000       0.00000000       0.00000000       0.00000000       0.00000000       0.00000000
H        2.80615512       0.00000000      14.58243212        1       1.00000000       0.00000000       0.00000000       0.00000000       0.00000000       0.00000000       0.00000000
H        1.40307756       2.43020162      14.58243212        1       1.00000000       0.00000000       0.00000000       0.00000000       0.00000000       0.00000000       0.00000000
H        4.20923268       2.43020162      14.58243212        1       1.00000000       0.00000000       0.00000000       0.00000000       0.00000000       0.00000000       0.00000000
H        2.80616139       1.62929474       7.75018245        0       1.00000000      -0.00000116       0.00000439       0.00001062      -0.00000769       0.00001813      -0.00001208
H        1.40307536       4.05032804      16.81106013        0       1.00000000      -0.00001111       0.00000486      -0.00000367       0.00000321      -0.00000560      -0.00001414
H       -0.00000865       1.62013240      16.81107239        0       1.00000000      -0.00000887       0.00000134      -0.00000063       0.00000564       0.00000351      -0.00001811
H        2.80615263       1.62012416      16.81106366        0       1.00000000       0.00000253       0.00001397       0.00000809      -0.00000437       0.00000704       0.00000121
H        1.41043895       4.05450431       7.78609614        0       1.00000000      -0.00000609       0.00000564      -0.00000473       0.00001092      -0.00003067      -0.00001776
H        4.20187017       4.05450796       7.78610022        0       1.00000000      -0.00000559       0.00000227       0.00000642      -0.00003451       0.00000072       0.00001957
H        4.20923131       4.05032601      16.81107964        0       1.00000000      -0.00000318      -0.00000995      -0.00000408      -0.00000455      -0.00001135      -0.00000490
H        0.00000344       3.23889415       5.56739745        0       1.00000000      -0.00000515       0.00000751       0.00000091       0.00000652      -0.00000335       0.00000272
H        5.61231373       1.60354456       7.78137059        0       1.00000000       0.00000492       0.00000088       0.00000322       0.00001581       0.00001439      -0.00001858
21
Lattice="5.612310241546866 0.0 0.0 0.0 4.860403243099165 0.0 0.0 0.0 24.582432123328676" Properties=species:S:1:pos:R:3:tags:I:1:masses:R:1:momenta:R:3:forces:R:3 KEmax=27.14459056223422 iter=90743 volume=670.5618179858607 ns_energy=-14.090604118420773 last_walked_iter_clone=90635 energy=-14.090604119177884 stress="0.009830864365894964 1.6971276233977104e-08 -8.098054224905184e-09 1.6971276233977104e-08 0.009858198098452628 7.120342287451364e-09 -8.098054224905184e-09 7.120342287451364e-09 0.004870223697420014" pbc="T T T"
H        1.40307756       0.81006721      10.00000000        3       1.00000000       0.00000000       0.00000000       0.00000000       0.00000000       0.00000000       0.00000000
H        4.20923268       0.81006721      10.00000000        3       1.00000000       0.00000000       0.00000000       0.00000000       0.00000000       0.00000000       0.00000000
H        0.00000000       3.24026883      10.00000000        3       1.00000000       0.00000000       0.00000000       0.00000000       0.00000000       0.00000000       0.00000000
H        2.80615512       3.24026883      10.00000000        3       1.00000000       0.00000000       0.00000000       0.00000000       0.00000000       0.00000000       0.00000000
H        0.00000000       1.62013441      12.29121606        2       1.00000000       0.00000000       0.00000000       0.00000000       0.00000000       0.00000000       0.00000000
H        2.80615512       1.62013441      12.29121606        2       1.00000000       0.00000000       0.00000000       0.00000000       0.00000000       0.00000000       0.00000000
H        1.40307756       4.05033604      12.29121606        2       1.00000000       0.00000000       0.00000000       0.00000000       0.00000000       0.00000000       0.00000000
H        4.20923268       4.05033604      12.29121606        2       1.00000000       0.00000000       0.00000000       0.00000000       0.00000000       0.00000000       0.00000000
H        0.00000000       0.00000000      14.58243212        1       1.00000000       0.00000000       0.00000000       0.00000000       0.00000000       0.00000000       0.00000000
H        2.80615512       0.00000000      14.58243212        1       1.00000000       0.00000000       0.00000000       0.00000000       0.00000000       0.00000000       0.00000000
H        1.40307756       2.43020162      14.58243212        1       1.00000000       0.00000000       0.00000000       0.00000000       0.00000000       0.00000000       0.00000000
H        4.20923268       2.43020162      14.58243212        1       1.00000000       0.00000000       0.00000000       0.00000000       0.00000000       0.00000000       0.00000000
H        2.80614497       1.62930415       7.75017547        0       1.00000000       0.00000039      -0.00000259      -0.00001271      -0.00000769       0.00001813      -0.00001208
H        1.40307439       4.05033254      16.81106361        0       1.00000000       0.00000564      -0.00000590      -0.00000221       0.00000321      -0.00000560      -0.00001414
H        5.61230622       1.62013447      16.81107119        0       1.00000000       0.00000054      -0.00000798       0.00000981       0.00000564       0.00000351      -0.00001811
H        2.80615317       1.62013591      16.81106956        0       1.00000000       0.00000565       0.00000453       0.00000962      -0.00000437       0.00000704       0.00000121
H        1.41044136       4.05450731       7.78608944        0       1.00000000      -0.00000252       0.00001084       0.00000104       0.00001092      -0.00003067      -0.00001776
H        4.20187182       4.05450015       7.78609399        0       1.00000000      -0.00001034       0.00000007      -0.00000002      -0.00003451       0.00000072       0.00001957
H        4.20923029       4.05034032      16.81106190        0       1.00000000      -0.00000246      -0.00001544       0.00000570      -0.00000455      -0.00001135      -0.00000490
H        5.61229413       3.23887257       5.56739862        0       1.00000000       0.00000984      -0.00001220       0.00000091       0.00000652      -0.00000335       0.00000272
H       -0.00000651       1.60353880       7.78136956        0       1.00000000       0.00000385      -0.00000275      -0.00000908       0.00001581       0.00001439      -0.00001858
21
Lattice="5.612310241546866 0.0 0.0 0.0 4.860403243099165 0.0 0.0 0.0 24.582432123328676" Properties=species:S:1:pos:R:3:tags:I:1:masses:R:1:momenta:R:3:forces:R:3 KEmax=27.14459056223422 iter=90743 volume=670.5618179858607 ns_energy=-14.090604118419996 last_walked_iter_clone=90597 energy=-14.090604119177884 stress="0.009830864365894964 1.6971276233977104e-08 -8.098054224905184e-09 1.6971276233977104e-08 0.009858198098452628 7.120342287451364e-09 -8.098054224905184e-09 7.120342287451364e-09 0.004870223697420014" pbc="T T T"
H        1.40307756       0.81006721      10.00000000        3       1.00000000       0.00000000       0.00000000       0.00000000       0.00000000       0.00000000       0.00000000
H        4.20923268       0.81006721      10.00000000        3       1.00000000       0.00000000       0.00000000       0.00000000       0.00000000       0.00000000       0.00000000
H        0.00000000       3.24026883      10.00000000        3       1.00000000       0.00000000       0.00000000       0.00000000       0.00000000       0.00000000       0.00000000
H        2.80615512       3.24026883      10.00000000        3       1.00000000       0.00000000       0.00000000       0.00000000       0.00000000       0.00000000       0.00000000
H        0.00000000       1.62013441      12.29121606        2       1.00000000       0.00000000       0.00000000       0.00000000       0.00000000       0.00000000       0.00000000
H        2.80615512       1.62013441      12.29121606        2       1.00000000       0.00000000       0.00000000       0.00000000       0.00000000       0.00000000       0.00000000
H        1.40307756       4.05033604      12.29121606        2       1.00000000       0.00000000       0.00000000       0.00000000       0.00000000       0.00000000       0.00000000
H        4.20923268       4.05033604      12.29121606        2       1.00000000       0.00000000       0.00000000       0.00000000       0.00000000       0.00000000       0.00000000
H        0.00000000       0.00000000      14.58243212        1       1.00000000       0.00000000       0.00000000       0.00000000       0.00000000       0.00000000       0.00000000
H        2.80615512       0.00000000      14.58243212        1       1.00000000       0.00000000       0.00000000       0.00000000       0.00000000       0.00000000       0.00000000
H        1.40307756       2.43020162      14.58243212        1       1.00000000       0.00000000       0.00000000       0.00000000       0.00000000       0.00000000       0.00000000
H        4.20923268       2.43020162      14.58243212        1       1.00000000       0.00000000       0.00000000       0.00000000       0.00000000       0.00000000       0.00000000
H        2.80614993       1.62929238       7.75017817        0       1.00000000       0.00001279       0.00000691      -0.00000621      -0.00000769       0.00001813      -0.00001208
H        1.40307902       4.05033899      16.81106140        0       1.00000000       0.00000453      -0.00001083       0.00000296       0.00000321      -0.00000560      -0.00001414
H        5.61230964       1.62013722      16.81106653        0       1.00000000       0.00000245       0.00001469      -0.00001727       0.00000564       0.00000351      -0.00001811
H        2.80615076       1.62013357      16.81106873        0       1.00000000      -0.00000700       0.00001191       0.00001213      -0.00000437       0.00000704       0.00000121
H        1.41043706       4.05449494       7.78609548        0       1.00000000      -0.00000885      -0.00000064       0.00000201       0.00001092      -0.00003067      -0.00001776
H        4.20186118       4.05449408       7.78609261        0       1.00000000      -0.00000141      -0.00000392      -0.00001162      -0.00003451       0.00000072       0.00001957
H        4.20923277       4.05033932      16.81106759        0       1.00000000      -0.00000801       0.00000704      -0.00000147      -0.00000455      -0.00001135      -0.00000490
H       -0.00000340       3.23887739       5.56739997        0       1.00000000       0.00000659       0.00001470      -0.00000445       0.00000652      -0.00000335       0.00000272
H        5.61231340       1.60353407       7.78136618        0       1.00000000      -0.00000947      -0.00000161      -0.00000093       0.00001581       0.00001439      -0.00001858
21
Lattice="5.612310241546866 0.0 0.0 0.0 4.860403243099165 0.0 0.0 0.0 24.582432123328676" Properties=species:S:1:pos:R:3:tags:I:1:masses:R:1:momenta:R:3:forces:R:3 KEmax=27.14459056223422 iter=90743 volume=670.5618179858607 ns_energy=-14.090604118419924 last_walked_iter_clone=90703 energy=-14.090604119177884 stress="0.009830864365894964 1.6971276233977104e-08 -8.098054224905184e-09 1.6971276233977104e-08 0.009858198098452628 7.120342287451364e-09 -8.098054224905184e-09 7.120342287451364e-09 0.004870223697420014" pbc="T T T"
H        1.40307756       0.81006721      10.00000000        3       1.00000000       0.00000000       0.00000000       0.00000000       0.00000000       0.00000000       0.00000000
H        4.20923268       0.81006721      10.00000000        3       1.00000000       0.00000000       0.00000000       0.00000000       0.00000000       0.00000000       0.00000000
H        0.00000000       3.24026883      10.00000000        3       1.00000000       0.00000000       0.00000000       0.00000000       0.00000000       0.00000000       0.00000000
H        2.80615512       3.24026883      10.00000000        3       1.00000000       0.00000000       0.00000000       0.00000000       0.00000000       0.00000000       0.00000000
H        0.00000000       1.62013441      12.29121606        2       1.00000000       0.00000000       0.00000000       0.00000000       0.00000000       0.00000000       0.00000000
H        2.80615512       1.62013441      12.29121606        2       1.00000000       0.00000000       0.00000000       0.00000000       0.00000000       0.00000000       0.00000000
H        1.40307756       4.05033604      12.29121606        2       1.00000000       0.00000000       0.00000000       0.00000000       0.00000000       0.00000000       0.00000000
H        4.20923268       4.05033604      12.29121606        2       1.00000000       0.00000000       0.00000000       0.00000000       0.00000000       0.00000000       0.00000000
H        0.00000000       0.00000000      14.58243212        1       1.00000000       0.00000000       0.00000000       0.00000000       0.00000000       0.00000000       0.00000000
H        2.80615512       0.00000000      14.58243212        1       1.00000000       0.00000000       0.00000000       0.00000000       0.00000000       0.00000000       0.00000000
H        1.40307756       2.43020162      14.58243212        1       1.00000000       0.00000000       0.00000000       0.00000000       0.00000000       0.00000000       0.00000000
H        4.20923268       2.43020162      14.58243212        1       1.00000000       0.00000000       0.00000000       0.00000000       0.00000000       0.00000000       0.00000000
H        2.80616907       1.62929335       7.75018538        0       1.00000000      -0.00000618       0.00000835       0.00000214      -0.00000769       0.00001813      -0.00001208
H        1.40307521       4.05033679      16.81106424        0       1.00000000      -0.00000378      -0.00000670       0.00000060       0.00000321      -0.00000560      -0.00001414
H        5.61230945       1.62012663      16.81107256        0       1.00000000      -0.00000750      -0.00000055      -0.00000133       0.00000564       0.00000351      -0.00001811
H        2.80615608       1.62012881      16.81106140        0       1.00000000       0.00000922      -0.00000047       0.00000780      -0.00000437       0.00000704       0.00000121
H        1.41045023       4.05449937       7.78609645        0       1.00000000       0.00000250       0.00000787       0.00000515       0.00001092      -0.00003067      -0.00001776
H        4.20187212       4.05450126       7.78609526        0       1.00000000       0.00000149       0.00001476       0.00000073      -0.00003451       0.00000072       0.00001957
H        4.20922772       4.05033674      16.81106878        0       1.00000000      -0.00000144      -0.00001016       0.00000765      -0.00000455      -0.00001135      -0.00000490
H        0.00001328       3.23887733       5.56739785        0       1.00000000      -0.00001551      -0.00001032      -0.00000854       0.00000652      -0.00000335       0.00000272
H        0.00001347       1.60354513       7.78137677        0       1.00000000       0.00000596       0.00000512      -0.00000170       0.00001581       0.00001439      -0.00001858
21
Lattice="5.612310241546866 0.0 0.0 0.0 4.860403243099165 0.0 0.0 0.0 24.582432123328676" Properties=species:S:1:pos:R:3:tags:I:1:masses:R:1:momenta:R:3:forces:R:3 KEmax=27.14459056223422 iter=90743 volume=670.5618179858607 ns_energy=-14.090604118427375 last_walked_iter_clone=90717 energy=-14.090604119177884 stress="0.009830864365894964 1.6971276233977104e-08 -8.098054224905184e-09 1.6971276233977104e-08 0.009858198098452628 7.120342287451364e-09 -8.098054224905184e-09 7.120342287451364e-09 0.004870223697420014" pbc="T T T"
H        1.40307756       0.81006721      10.00000000        3       1.00000000       0.00000000       0.00000000       0.00000000       0.00000000       0.00000000       0.00000000
H        4.20923268       0.81006721      10.00000000        3       1.00000000       0.00000000       0.00000000       0.00000000       0.00000000       0.00000000       0.00000000
H        0.00000000       3.24026883      10.00000000        3       1.00000000       0.00000000       0.00000000       0.00000000       0.00000000       0.00000000       0.00000000
H        2.80615512       3.24026883      10.00000000        3       1.00000000       0.00000000       0.00000000       0.00000000       0.00000000       0.00000000       0.00000000
H        0.00000000       1.62013441      12.29121606        2       1.00000000       0.00000000       0.00000000       0.00000000       0.00000000       0.00000000       0.00000000
H        2.80615512       1.62013441      12.29121606        2       1.00000000       0.00000000       0.00000000       0.00000000       0.00000000       0.00000000       0.00000000
H        1.40307756       4.05033604      12.29121606        2       1.00000000       0.00000000       0.00000000       0.00000000       0.00000000       0.00000000       0.00000000
H        4.20923268       4.05033604      12.29121606        2       1.00000000       0.00000000       0.00000000       0.00000000       0.00000000       0.00000000       0.00000000
H        0.00000000       0.00000000      14.58243212        1       1.00000000       0.00000000       0.00000000       0.00000000       0.00000000       0.00000000       0.00000000
H        2.80615512       0.00000000      14.58243212        1       1.00000000       0.00000000       0.00000000       0.00000000       0.00000000       0.00000000       0.00000000
H        1.40307756       2.43020162      14.58243212        1       1.00000000       0.00000000       0.00000000       0.00000000       0.00000000       0.00000000       0.00000000
H        4.20923268       2.43020162      14.58243212        1       1.00000000       0.00000000       0.00000000       0.00000000       0.00000000       0.00000000       0.00000000
H        2.80615524       1.62929872       7.75018875        0       1.00000000      -0.00000242      -0.00000345       0.00000391      -0.00000769       0.00001813      -0.00001208
H        1.40308384       4.05033062      16.81106766        0       1.00000000       0.00000925      -0.00000454       0.00000452       0.00000321      -0.00000560      -0.00001414
H       -0.00000705       1.62011935      16.81106138        0       1.00000000      -0.00000566       0.00001536      -0.00000549       0.00000564       0.00000351      -0.00001811
H        2.80615286       1.62013379      16.81106081        0       1.00000000      -0.00000141      -0.00000394      -0.00000098      -0.00000437       0.00000704       0.00000121
H        1.41043209       4.05449512       7.78608946        0       1.00000000      -0.00000214      -0.00000805       0.00000933       0.00001092      -0.00003067      -0.00001776
H        4.20185979       4.05449606       7.78610150        0       1.00000000      -0.00000643      -0.00000235      -0.00001256      -0.00003451       0.00000072       0.00001957