21
Lattice="5.612310241546866 0.0 0.0 0.0 4.860403243099165 0.0 0.0 0.0 24.582432123328676" Properties=species:S:1:pos:R:3:tags:I:1:masses:R:1:momenta:R:3:forces:R:3 KEmax=27.14459056223422 iter=119999 volume=670.5618179858607 ns_energy=-14.090604119800567 last_walked_iter_clone=119868 energy=-14.09060411981117 stress="0.00983086141593998 -3.9921949289955156e-10 6.488100960332295e-09 -3.9921949289955156e-10 0.00985817117363505 -2.9208290678539373e-09 6.488100960332295e-09 -2.9208290678539373e-09 0.004870163376438968" pbc="T T T"
H        1.40307756       0.81006721      10.00000000        3       1.00000000       0.00000000       0.00000000       0.00000000       0.00000000       0.00000000       0.00000000
H        4.20923268       0.81006721      10.00000000        3       1.00000000       0.00000000       0.00000000       0.00000000       0.00000000       0.00000000       0.00000000
H        0.00000000       3.24026883      10.00000000        3       1.00000000       0.00000000       0.00000000       0.00000000       0.00000000       0.00000000       0.00000000
H        2.80615512       3.24026883      10.00000000        3       1.00000000       0.00000000       0.00000000       0.00000000       0.00000000       0.00000000       0.00000000
H        0.00000000       1.62013441      12.29121606        2       1.00000000       0.00000000       0.00000000       0.00000000       0.00000000       0.00000000       0.00000000
H        2.80615512       1.62013441      12.29121606        2       1.00000000       0.00000000       0.00000000       0.00000000       0.00000000       0.00000000       0.00000000
H        1.40307756       4.05033604      12.29121606        2       1.00000000       0.00000000       0.00000000       0.00000000       0.00000000       0.00000000       0.00000000
H        4.20923268       4.05033604      12.29121606        2       1.00000000       0.00000000       0.00000000       0.00000000       0.00000000       0.00000000       0.00000000
H        0.00000000       0.00000000      14.58243212        1       1.00000000       0.00000000       0.00000000       0.00000000       0.00000000       0.00000000       0.00000000
H        2.80615512       0.00000000      14.58243212        1       1.00000000       0.00000000       0.00000000       0.00000000       0.00000000       0.00000000       0.00000000
H        1.40307756       2.43020162      14.58243212        1       1.00000000       0.00000000       0.00000000       0.00000000       0.00000000       0.00000000       0.00000000
H        4.20923268       2.43020162      14.58243212        1       1.00000000       0.00000000       0.00000000       0.00000000       0.00000000       0.00000000       0.00000000
H        2.80615529       1.62929518       7.75018336        0       1.00000000      -0.00000085       0.00000027      -0.00000047      -0.00000011      -0.00000182       0.00000060
H        1.40307747       4.05033567      16.81106506        0       1.00000000      -0.00000119      -0.00000086      -0.00000102      -0.00000141      -0.00000102       0.00000335
H        0.00000104       1.62013385      16.81106482        0       1.00000000      -0.00000152       0.00000087      -0.00000121       0.00000090       0.00000279       0.00000081
H        2.80615562       1.62013323      16.81106537        0       1.00000000       0.00000011      -0.00000080      -0.00000019       0.00000004       0.00000071      -0.00000033
H        1.41044089       4.05449807       7.78609646        0       1.00000000       0.00000071      -0.00000032      -0.00000064      -0.00000168       0.00000231      -0.00000124
H        4.20186852       4.05449900       7.78609614        0       1.00000000       0.00000043       0.00000021       0.00000088       0.00000125       0.00000113       0.00000288
H        4.20923240       4.05033540      16.81106498        0       1.00000000      -0.00000091       0.00000024       0.00000146      -0.00000064      -0.00000115       0.00000330
H        0.00000019       3.23888630       5.56739765        0       1.00000000      -0.00000131       0.00000110       0.00000079       0.00000085       0.00000076      -0.00000073
H        5.61231022       1.60353616       7.78137026        0       1.00000000      -0.00000097      -0.00000092      -0.00000200      -0.00000030      -0.00000217       0.00000032
21
Lattice="5.612310241546866 0.0 0.0 0.0 4.860403243099165 0.0 0.0 0.0 24.582432123328676" Properties=species:S:1:pos:R:3:tags:I:1:masses:R:1:momenta:R:3:forces:R:3 KEmax=27.14459056223422 iter=119999 volume=670.5618179858607 ns_energy=-14.09060411980125 last_walked_iter_clone=119947 energy=-14.09060411981117 stress="0.00983086141593998 -3.9921949289955156e-10 6.488100960332295e-09 -3.9921949289955156e-10 0.00985817117363505 -2.9208290678539373e-09 6.488100960332295e-09 -2.9208290678539373e-09 0.004870163376438968" pbc="T T T"
H        1.40307756       0.81006721      10.00000000        3       1.00000000       0.00000000       0.00000000       0.00000000       0.00000000       0.00000000       0.00000000
H        4.20923268       0.81006721      10.00000000        3       1.00000000       0.00000000       0.00000000       0.00000000       0.00000000       0.00000000       0.00000000
H        0.00000000       3.24026883      10.00000000        3       1.00000000       0.00000000       0.00000000       0.00000000       0.00000000       0.00000000       0.00000000
H        2.80615512       3.24026883      10.00000000        3       1.00000000       0.00000000       0.00000000       0.00000000       0.00000000       0.00000000       0.00000000
H        0.00000000       1.62013441      12.29121606        2       1.00000000       0.00000000       0.00000000       0.00000000       0.00000000       0.00000000       0.00000000
H        2.80615512       1.62013441      12.29121606        2       1.00000000       0.00000000       0.00000000       0.00000000       0.00000000       0.00000000       0.00000000
H        1.40307756       4.05033604      12.29121606        2       1.00000000       0.00000000       0.00000000       0.00000000       0.00000000       0.00000000       0.00000000
H        4.20923268       4.05033604      12.29121606        2       1.00000000       0.00000000       0.00000000       0.00000000       0.00000000       0.00000000       0.00000000
H        0.00000000       0.00000000      14.58243212        1       1.00000000       0.00000000       0.00000000       0.00000000       0.00000000       0.00000000       0.00000000
H        2.80615512       0.00000000      14.58243212        1       1.00000000       0.00000000       0.00000000       0.00000000       0.00000000       0.00000000       0.00000000
H        1.40307756       2.43020162      14.58243212        1       1.00000000       0.00000000       0.00000000       0.00000000       0.00000000       0.00000000       0.00000000
H        4.20923268       2.43020162      14.58243212        1       1.00000000       0.00000000       0.00000000       0.00000000       0.00000000       0.00000000       0.00000000
H        2.80615682       1.62929479       7.75018305        0       1.00000000      -0.00000192      -0.00000025      -0.00000030      -0.00000011      -0.00000182       0.00000060
H        1.40307773       4.05033461      16.81106507        0       1.00000000       0.00000146      -0.00000104       0.00000100      -0.00000141      -0.00000102       0.00000335
H        5.61231041       1.62013338      16.81106489        0       1.00000000       0.00000066      -0.00000021      -0.00000015       0.00000090       0.00000279       0.00000081
H        2.80615602       1.62013386      16.81106508        0       1.00000000       0.00000045       0.00000124       0.00000043       0.00000004       0.00000071      -0.00000033
H        1.41044267       4.05449851       7.78609610        0       1.00000000       0.00000067      -0.00000116      -0.00000040      -0.00000168       0.00000231      -0.00000124
H        4.20187043       4.05449796       7.78609539        0       1.00000000       0.00000015      -0.00000074      -0.00000017       0.00000125       0.00000113       0.00000288
H        4.20923303       4.05033508      16.81106592        0       1.00000000       0.00000073      -0.00000054       0.00000088      -0.00000064      -0.00000115       0.00000330
H        5.61231235       3.23888257       5.56739732        0       1.00000000       0.00000068       0.00000048      -0.00000091       0.00000085       0.00000076      -0.00000073
H        5.61231137       1.60353601       7.78137082        0       1.00000000      -0.00000012       0.00000003      -0.00000069      -0.00000030      -0.00000217       0.00000032
21
Lattice="5.612310241546866 0.0 0.0 0.0 4.860403243099165 0.0 0.0 0.0 24.582432123328676" Properties=species:S:1:pos:R:3:tags:I:1:masses:R:1:momenta:R:3:forces:R:3 KEmax=27.14459056223422 iter=119999 volume=670.5618179858607 ns_energy=-14.09060411980055 last_walked_iter_clone=119712 energy=-14.09060411981117 stress="0.00983086141593998 -3.9921949289955156e-10 6.488100960332295e-09 -3.9921949289955156e-10 0.00985817117363505 -2.9208290678539373e-09 6.488100960332295e-09 -2.9208290678539373e-09 0.004870163376438968" pbc="T T T"
H        1.40307756       0.81006721      10.00000000        3       1.00000000       0.00000000       0.00000000       0.00000000       0.00000000       0.00000000       0.00000000
H        4.20923268       0.81006721      10.00000000        3       1.00000000       0.00000000       0.00000000       0.00000000       0.00000000       0.00000000       0.00000000
H        0.00000000       3.24026883      10.00000000        3       1.00000000       0.00000000       0.00000000       0.00000000       0.00000000       0.00000000       0.00000000
H        2.80615512       3.24026883      10.00000000        3       1.00000000       0.00000000       0.00000000       0.00000000       0.00000000       0.00000000       0.00000000
H        0.00000000       1.62013441      12.29121606        2       1.00000000       0.00000000       0.00000000       0.00000000       0.00000000       0.00000000       0.00000000
H        2.80615512       1.62013441      12.29121606        2       1.00000000       0.00000000       0.00000000       0.00000000       0.00000000       0.00000000       0.00000000
H        1.40307756       4.05033604      12.29121606        2       1.00000000       0.00000000       0.00000000       0.00000000       0.00000000       0.00000000       0.00000000
H        4.20923268       4.05033604      12.29121606        2       1.00000000       0.00000000       0.00000000       0.00000000       0.00000000       0.00000000       0.00000000
H        0.00000000       0.00000000      14.58243212        1       1.00000000       0.00000000       0.00000000       0.00000000       0.00000000       0.00000000       0.00000000
H        2.80615512       0.00000000      14.58243212        1       1.00000000       0.00000000       0.00000000       0.00000000       0.00000000       0.00000000       0.00000000
H        1.40307756       2.43020162      14.58243212        1       1.00000000       0.00000000       0.00000000       0.00000000       0.00000000       0.00000000       0.00000000
H        4.20923268       2.43020162      14.58243212        1       1.00000000       0.00000000       0.00000000       0.00000000       0.00000000       0.00000000       0.00000000
H        2.80615503       1.62929540       7.75018374        0       1.00000000      -0.00000106      -0.00000036      -0.00000109      -0.00000011      -0.00000182       0.00000060
H        1.40307741       4.05033611      16.81106396        0       1.00000000      -0.00000025      -0.00000025      -0.00000062      -0.00000141      -0.00000102       0.00000335
H        5.61231024       1.62013514      16.81106437        0       1.00000000      -0.00000029       0.00000037      -0.00000112       0.00000090       0.00000279       0.00000081
H        2.80615647       1.62013459      16.81106552        0       1.00000000       0.00000045       0.00000058      -0.00000037       0.00000004       0.00000071      -0.00000033
H        1.41044104       4.05449893       7.78609635        0       1.00000000      -0.00000017       0.00000240      -0.00000113      -0.00000168       0.00000231      -0.00000124
H        4.20186818       4.05449904       7.78609592        0       1.00000000       0.00000061      -0.00000098       0.00000001       0.00000125       0.00000113       0.00000288
H        4.20923292       4.05033729      16.81106522        0       1.00000000      -0.00000021      -0.00000111      -0.00000176      -0.00000064      -0.00000115       0.00000330
H        5.61230958       3.23888434       5.56739880        0       1.00000000      -0.00000031       0.00000135       0.00000104       0.00000085       0.00000076      -0.00000073
H        5.61230953       1.60353684       7.78137172        0       1.00000000       0.00000064      -0.00000118       0.00000109      -0.00000030      -0.00000217       0.00000032
21
Lattice="5.612310241546866 0.0 0.0 0.0 4.860403243099165 0.0 0.0 0.0 24.582432123328676" Properties=species:S:1:pos:R:3:tags:I:1:masses:R:1:momenta:R:3:forces:R:3 KEmax=27.14459056223422 iter=119999 volume=670.5618179858607 ns_energy=-14.090604119801375 last_walked_iter_clone=119580 energy=-14.09060411981117 stress="0.00983086141593998 -3.9921949289955156e-10 6.488100960332295e-09 -3.9921949289955156e-10 0.00985817117363505 -2.9208290678539373e-09 6.488100960332295e-09 -2.9208290678539373e-09 0.004870163376438968" pbc="T T T"
H        1.40307756       0.81006721      10.00000000        3       1.00000000       0.00000000       0.00000000       0.00000000       0.00000000       0.00000000       0.00000000
H        4.20923268       0.81006721      10.00000000        3       1.00000000       0.00000000       0.00000000       0.00000000       0.00000000       0.00000000       0.00000000
H        0.00000000       3.24026883      10.00000000        3       1.00000000       0.00000000       0.00000000       0.00000000       0.00000000       0.00000000       0.00000000
H        2.80615512       3.24026883      10.00000000        3       1.00000000       0.00000000       0.00000000       0.00000000       0.00000000       0.00000000       0.00000000
H        0.00000000       1.62013441      12.29121606        2       1.00000000       0.00000000       0.00000000       0.00000000       0.00000000       0.00000000       0.00000000
H        2.80615512       1.62013441      12.29121606        2       1.00000000       0.00000000       0.00000000       0.00000000       0.00000000       0.00000000       0.00000000
H        1.40307756       4.05033604      12.29121606        2       1.00000000       0.00000000       0.00000000       0.00000000       0.00000000       0.00000000       0.00000000
H        4.20923268       4.05033604      12.29121606        2       1.00000000       0.00000000       0.00000000       0.00000000       0.00000000       0.00000000       0.00000000
H        0.00000000       0.00000000      14.58243212        1       1.00000000       0.00000000       0.00000000       0.00000000       0.00000000       0.00000000       0.00000000
H        2.80615512       0.00000000      14.58243212        1       1.00000000       0.00000000       0.00000000       0.00000000       0.00000000       0.00000000       0.00000000
H        1.40307756       2.43020162      14.58243212        1       1.00000000       0.00000000       0.00000000       0.00000000       0.00000000       0.00000000       0.00000000
H        4.20923268       2.43020162      14.58243212        1       1.00000000       0.00000000       0.00000000       0.00000000       0.00000000       0.00000000       0.00000000
H        2.80615496       1.62929448       7.75018317        0       1.00000000       0.00000071      -0.00000017      -0.00000198      -0.00000011      -0.00000182       0.00000060
H        1.40307760       4.05033597      16.81106499        0       1.00000000       0.00000069       0.00000137       0.00000014      -0.00000141      -0.00000102       0.00000335
H        5.61230969       1.62013545      16.81106471        0       1.00000000      -0.00000054       0.00000086       0.00000068       0.00000090       0.00000279       0.00000081
H        2.80615495       1.62013391      16.81106507        0       1.00000000       0.00000068      -0.00000224       0.00000016       0.00000004       0.00000071      -0.00000033
H        1.41044205       4.05449875       7.78609615        0       1.00000000       0.00000065       0.00000145      -0.00000053      -0.00000168       0.00000231      -0.00000124
H        4.20186832       4.05449857       7.78609702        0       1.00000000      -0.00000021       0.00000174      -0.00000060       0.00000125       0.00000113       0.00000288
H        4.20923255       4.05033601      16.81106541        0       1.00000000       0.00000062       0.00000008       0.00000030      -0.00000064      -0.00000115       0.00000330
H       -0.00000311       3.23888589       5.56739860        0       1.00000000      -0.00000051       0.00000020       0.00000070       0.00000085       0.00000076      -0.00000073
H        5.61231058       1.60353721       7.78137192        0       1.00000000       0.00000023      -0.00000120      -0.00000052      -0.00000030      -0.00000217       0.00000032
21
Lattice="5.612310241546866 0.0 0.0 0.0 4.860403243099165 0.0 0.0 0.0 24.582432123328676" Properties=species:S:1:pos:R:3:tags:I:1:masses:R:1:momenta:R:3:forces:R:3 KEmax=27.14459056223422 iter=119999 volume=670.5618179858607 ns_energy=-14.090604119800867 last_walked_iter_clone=119778 energy=-14.09060411981117 stress="0.00983086141593998 -3.9921949289955156e-10 6.488100960332295e-09 -3.9921949289955156e-10 0.00985817117363505 -2.9208290678539373e-09 6.488100960332295e-09 -2.9208290678539373e-09 0.004870163376438968" pbc="T T T"
H        1.40307756       0.81006721      10.00000000        3       1.00000000       0.00000000       0.00000000       0.00000000       0.00000000       0.00000000       0.00000000
H        4.20923268       0.81006721      10.00000000        3       1.00000000       0.00000000       0.00000000       0.00000000       0.00000000       0.00000000       0.00000000
H        0.00000000       3.24026883      10.00000000        3       1.00000000       0.00000000       0.00000000       0.00000000       0.00000000       0.00000000       0.00000000
H        2.80615512       3.24026883      10.00000000        3       1.00000000       0.00000000       0.00000000       0.00000000       0.00000000       0.00000000       0.00000000
H        0.00000000       1.62013441      12.29121606        2       1.00000000       0.00000000       0.00000000       0.00000000       0.00000000       0.00000000       0.00000000
H        2.80615512       1.62013441      12.29121606        2       1.00000000       0.00000000       0.00000000       0.00000000       0.00000000       0.00000000       0.00000000
H        1.40307756       4.05033604      12.29121606        2       1.00000000       0.00000000       0.00000000       0.00000000       0.00000000       0.00000000       0.00000000
H        4.20923268       4.05033604      12.29121606        2       1.00000000       0.00000000       0.00000000       0.00000000       0.00000000       0.00000000       0.00000000
H        0.00000000       0.00000000      14.58243212        1       1.00000000       0.00000000       0.00000000       0.00000000       0.00000000       0.00000000       0.00000000
H        2.80615512       0.00000000      14.58243212        1       1.00000000       0.00000000       0.00000000       0.00000000       0.00000000       0.00000000       0.00000000
H        1.40307756       2.43020162      14.58243212        1       1.00000000       0.00000000       0.00000000       0.00000000       0.00000000       0.00000000       0.00000000
H        4.20923268       2.43020162      14.58243212        1       1.00000000       0.00000000       0.00000000       0.00000000       0.00000000       0.00000000       0.00000000
H        2.80615550       1.62929418       7.75018366        0       1.00000000      -0.00000130      -0.00000101      -0.00000032      -0.00000011      -0.00000182       0.00000060
H        1.40307761       4.05033564      16.81106450        0       1.00000000      -0.00000060       0.00000031      -0.00000085      -0.00000141      -0.00000102       0.00000335
H        0.00000003       1.62013474      16.81106467        0       1.00000000       0.00000062       0.00000113      -0.00000115       0.00000090       0.00000279       0.00000081
H        2.80615485       1.62013447      16.81106526        0       1.00000000       0.00000078       0.00000199      -0.00000130       0.00000004       0.00000071      -0.00000033
H        1.41044250       4.05449760       7.78609532        0       1.00000000      -0.00000108       0.00000179      -0.00000075      -0.00000168       0.00000231      -0.00000124
H        4.20186879       4.05449826       7.78609690        0       1.00000000       0.00000034       0.00000010      -0.00000112       0.00000125       0.00000113       0.00000288
H        4.20923277       4.05033547      16.81106516        0       1.00000000       0.00000004      -0.00000052       0.00000072      -0.00000064      -0.00000115       0.00000330
H       -0.00000302       3.23888460       5.56739845        0       1.00000000      -0.00000115      -0.00000091      -0.00000041       0.00000085       0.00000076      -0.00000073
H        0.00000122       1.60353651       7.78137112        0       1.00000000      -0.00000041      -0.00000119      -0.00000038      -0.00000030      -0.00000217       0.00000032
21
Lattice="5.612310241546866 0.0 0.0 0.0 4.860403243099165 0.0 0.0 0.0 24.582432123328676" Properties=species:S:1:pos:R:3:tags:I:1:masses:R:1:momenta:R:3:forces:R:3 KEmax=27.14459056223422 iter=119999 volume=670.5618179858607 ns_energy=-14.090604119800561 last_walked_iter_clone=119951 energy=-14.09060411981117 stress="0.00983086141593998 -3.9921949289955156e-10 6.488100960332295e-09 -3.9921949289955156e-10 0.00985817117363505 -2.9208290678539373e-09 6.488100960332295e-09 -2.9208290678539373e-09 0.004870163376438968" pbc="T T T"
H        1.40307756       0.81006721      10.00000000        3       1.00000000       0.00000000       0.00000000       0.00000000       0.00000000       0.00000000       0.00000000
H        4.20923268       0.81006721      10.00000000        3       1.00000000       0.00000000       0.00000000       0.00000000       0.00000000       0.00000000       0.00000000
H        0.00000000       3.24026883      10.00000000        3       1.00000000       0.00000000       0.00000000       0.00000000       0.00000000       0.00000000       0.00000000
H        2.80615512       3.24026883      10.00000000        3       1.00000000       0.00000000       0.00000000       0.00000000       0.00000000       0.00000000       0.00000000
H        0.00000000       1.62013441      12.29121606        2       1.00000000       0.00000000       0.00000000       0.00000000       0.00000000       0.00000000       0.00000000
H        2.80615512       1.62013441      12.29121606        2       1.00000000       0.00000000       0.00000000       0.00000000       0.00000000       0.00000000       0.00000000
H        1.40307756       4.05033604      12.29121606        2       1.00000000       0.00000000       0.00000000       0.00000000       0.00000000       0.00000000       0.00000000
H        4.20923268       4.05033604      12.29121606        2       1.00000000       0.00000000       0.00000000       0.00000000       0.00000000       0.00000000       0.00000000
H        0.00000000       0.00000000      14.58243212        1       1.00000000       0.00000000       0.00000000       0.00000000       0.00000000       0.00000000       0.00000000
H        2.80615512       0.00000000      14.58243212        1       1.00000000       0.00000000       0.00000000       0.00000000       0.00000000       0.00000000       0.00000000
H        1.40307756       2.43020162      14.58243212        1       1.00000000       0.00000000       0.00000000       0.00000000       0.00000000       0.00000000       0.00000000
H        4.20923268       2.43020162      14.58243212        1       1.00000000       0.00000000       0.00000000       0.00000000       0.00000000       0.00000000       0.00000000
H        2.80615473       1.62929434       7.75018343        0       1.00000000       0.00000205       0.00000172       0.00000046      -0.00000011      -0.00000182       0.00000060
H        1.40307806       4.05033706      16.81106407        0       1.00000000       0.00000075       0.00000020       0.00000097      -0.00000141      -0.00000102       0.00000335
H       -0.00000017       1.62013518      16.81106535        0       1.00000000      -0.00000142      -0.00000047       0.00000052       0.00000090       0.00000279       0.00000081
H        2.80615463       1.62013477      16.81106489        0       1.00000000      -0.00000009       0.00000031       0.00000069       0.00000004       0.00000071      -0.00000033
H        1.41044216       4.05449756       7.78609648        0       1.00000000      -0.00000207      -0.00000107       0.00000011      -0.00000168       0.00000231      -0.00000124
H        4.20186897       4.05449794       7.78609588        0       1.00000000       0.00000081       0.00000027      -0.00000026       0.00000125       0.00000113       0.00000288
H        4.20923293       4.05033683      16.81106508        0       1.00000000      -0.00000076       0.00000039      -0.00000059      -0.00000064      -0.00000115       0.00000330
H        5.61231213       3.23888287       5.56739878        0       1.00000000      -0.00000167       0.00000146      -0.00000127       0.00000085       0.00000076      -0.00000073
H        0.00000034       1.60353535       7.78137207        0       1.00000000      -0.00000027       0.00000049       0.00000177      -0.00000030      -0.00000217       0.00000032
21
Lattice="5.612310241546866 0.0 0.0 0.0 4.860403243099165 0.0 0.0 0.0 24.582432123328676" Properties=species:S:1:pos:R:3:tags:I:1:masses:R:1:momenta:R:3:forces:R:3 KEmax=27.14459056223422 iter=119999 volume=670.5618179858607 ns_energy=-14.09060411980063 last_walked_iter_clone=119710 energy=-14.09060411981117 stress="0.00983086141593998 -3.9921949289955156e-10 6.488100960332295e-09 -3.9921949289955156e-10 0.00985817117363505 -2.9208290678539373e-09 6.488100960332295e-09 -2.9208290678539373e-09 0.004870163376438968" pbc="T T T"
H        1.40307756       0.81006721      10.00000000        3       1.00000000       0.00000000       0.00000000       0.00000000       0.00000000       0.00000000       0.00000000
H        4.20923268       0.81006721      10.00000000        3       1.00000000       0.00000000       0.00000000       0.00000000       0.00000000       0.00000000       0.00000000
H        0.00000000       3.24026883      10.00000000        3       1.00000000       0.00000000       0.00000000       0.00000000       0.00000000       0.00000000       0.00000000
H        2.80615512       3.24026883      10.00000000        3       1.00000000       0.00000000       0.00000000       0.00000000       0.00000000       0.00000000       0.00000000
H        0.00000000       1.62013441      12.29121606        2       1.00000000       0.00000000       0.00000000       0.00000000       0.00000000       0.00000000       0.00000000
H        2.80615512       1.62013441      12.29121606        2       1.00000000       0.00000000       0.00000000       0.00000000       0.00000000       0.00000000       0.00000000
H        1.40307756       4.05033604      12.29121606        2       1.00000000       0.00000000       0.00000000       0.00000000       0.00000000       0.00000000       0.00000000
H        4.20923268       4.05033604      12.29121606        2       1.00000000       0.00000000       0.00000000       0.00000000       0.00000000       0.00000000       0.00000000
H        0.00000000       0.00000000      14.58243212        1       1.00000000       0.00000000       0.00000000       0.00000000       0.00000000       0.00000000       0.00000000
H        2.80615512       0.00000000      14.58243212        1       1.00000000       0.00000000       0.00000000       0.00000000       0.00000000       0.00000000       0.00000000
H        1.40307756       2.43020162      14.58243212        1       1.00000000       0.00000000       0.00000000       0.00000000       0.00000000       0.00000000       0.00000000
H        4.20923268       2.43020162      14.58243212        1       1.00000000       0.00000000       0.00000000       0.00000000       0.00000000       0.00000000       0.00000000
H        2.80615614       1.62929560       7.75018204        0       1.00000000       0.00000082      -0.00000022       0.00000116      -0.00000011      -0.00000182       0.00000060
H        1.40307759       4.05033629      16.81106467        0       1.00000000       0.00000134      -0.00000075      -0.00000162      -0.00000141      -0.00000102       0.00000335
H        5.61230964       1.62013414      16.81106387        0       1.00000000      -0.00000043       0.00000016       0.00000169       0.00000090       0.00000279       0.00000081
H        2.80615500       1.62013428      16.81106479        0       1.00000000       0.00000025      -0.00000140      -0.00000134       0.00000004       0.00000071      -0.00000033
H        1.41044182       4.05449797       7.78609606        0       1.00000000       0.00000003      -0.00000126       0.00000041      -0.00000168       0.00000231      -0.00000124
H        4.20186910       4.05449849       7.78609637        0       1.00000000      -0.00000030      -0.00000027       0.00000130       0.00000125       0.00000113       0.00000288