18
Lattice="5.612310241546866 0.0 0.0 0.0 4.860403243099165 0.0 0.0 0.0 24.582432123328676" Properties=species:S:1:pos:R:3:tags:I:1:masses:R:1:momenta:R:3 KEmax=23.26679191048647 iter=99 volume=670.5618179858607 ns_energy=52.18032467670557 last_walked_iter_clone=31 ns_P=0.0 config_n_global=99 ns_KE=21.22283331018011 pbc="T T T"
H        1.40307756       0.81006721      10.00000000        3       1.00000000       0.00000000       0.00000000       0.00000000
H        4.20923268       0.81006721      10.00000000        3       1.00000000       0.00000000       0.00000000       0.00000000
H        0.00000000       3.24026883      10.00000000        3       1.00000000       0.00000000       0.00000000       0.00000000
H        2.80615512       3.24026883      10.00000000        3       1.00000000       0.00000000       0.00000000       0.00000000
H        0.00000000       1.62013441      12.29121606        2       1.00000000       0.00000000       0.00000000       0.00000000
H        2.80615512       1.62013441      12.29121606        2       1.00000000       0.00000000       0.00000000       0.00000000
H        1.40307756       4.05033604      12.29121606        2       1.00000000       0.00000000       0.00000000       0.00000000
H        4.20923268       4.05033604      12.29121606        2       1.00000000       0.00000000       0.00000000       0.00000000
H        0.00000000       0.00000000      14.58243212        1       1.00000000       0.00000000       0.00000000       0.00000000
H        2.80615512       0.00000000      14.58243212        1       1.00000000       0.00000000       0.00000000       0.00000000
H        1.40307756       2.43020162      14.58243212        1       1.00000000       0.00000000       0.00000000       0.00000000
H        4.20923268       2.43020162      14.58243212        1       1.00000000       0.00000000       0.00000000       0.00000000
H        0.52040137       0.49937989      19.41532465        0       1.00000000      -0.66176823       1.42222815       1.35884684
H        3.75879140       3.57041208      19.11938569        0       1.00000000      -2.69689589       0.13872401       0.21477614
H        2.52318853       1.10431976       5.29632948        0       1.00000000       1.31024934       1.82860219      -2.39665775
H        0.93211598       1.60843752       5.57849252        0       1.00000000       2.22133544      -1.54736301       2.25747176
H        1.94988729       0.50199011      17.22326018        0       1.00000000       0.63936902      -2.16133260      -0.48130311
H        1.70231673       1.15110883       7.74021320        0       1.00000000      -1.28357709      -0.68775228      -0.37173102
18
Lattice="5.612310241546866 0.0 0.0 0.0 4.860403243099165 0.0 0.0 0.0 24.582432123328676" Properties=species:S:1:pos:R:3:tags:I:1:masses:R:1:momenta:R:3 KEmax=23.26679191048647 iter=199 volume=670.5618179858607 ns_energy=13.370493070119627 last_walked_iter_clone=101 ns_P=0.0 config_n_global=199 ns_KE=21.857924355480556 pbc="T T T"
H        1.40307756       0.81006721      10.00000000        3       1.00000000       0.00000000       0.00000000       0.00000000
H        4.20923268       0.81006721      10.00000000        3       1.00000000       0.00000000       0.00000000       0.00000000
H        0.00000000       3.24026883      10.00000000        3       1.00000000       0.00000000       0.00000000       0.00000000
H        2.80615512       3.24026883      10.00000000        3       1.00000000       0.00000000       0.00000000       0.00000000
H        0.00000000       1.62013441      12.29121606        2       1.00000000       0.00000000       0.00000000       0.00000000
H        2.80615512       1.62013441      12.29121606        2       1.00000000       0.00000000       0.00000000       0.00000000
H        1.40307756       4.05033604      12.29121606        2       1.00000000       0.00000000       0.00000000       0.00000000
H        4.20923268       4.05033604      12.29121606        2       1.00000000       0.00000000       0.00000000       0.00000000
H        0.00000000       0.00000000      14.58243212        1       1.00000000       0.00000000       0.00000000       0.00000000
H        2.80615512       0.00000000      14.58243212        1       1.00000000       0.00000000       0.00000000       0.00000000
H        1.40307756       2.43020162      14.58243212        1       1.00000000       0.00000000       0.00000000       0.00000000
H        4.20923268       2.43020162      14.58243212        1       1.00000000       0.00000000       0.00000000       0.00000000
H        0.77059511       3.03882735       6.96705092        0       1.00000000      -0.60615092      -2.00836672      -0.80334676
H        1.50755537       3.81171584      17.72696816        0       1.00000000       0.66903889      -1.73625943      -0.31794044
H        5.02983805       0.43855551      20.82224819        0       1.00000000      -2.02591370       1.82092939      -2.30402458
H        2.01465391       0.87365724       4.59598295        0       1.00000000       0.36979806      -0.25743804      -2.11018492
H        3.34323959       3.08981314       5.72447346        0       1.00000000       1.88302168      -1.48076495      -0.94481946
H        1.61094561       2.71636885       1.72475199        0       1.00000000       0.05865974      -0.19077257      -3.32426409
18
Lattice="5.612310241546866 0.0 0.0 0.0 4.860403243099165 0.0 0.0 0.0 24.582432123328676" Properties=species:S:1:pos:R:3:tags:I:1:masses:R:1:momenta:R:3 KEmax=23.26679191048647 iter=299 volume=670.5618179858607 ns_energy=11.55796334368064 last_walked_iter_clone=207 ns_P=0.0 config_n_global=299 ns_KE=19.340987056438088 pbc="T T T"
H        1.40307756       0.81006721      10.00000000        3       1.00000000       0.00000000       0.00000000       0.00000000
H        4.20923268       0.81006721      10.00000000        3       1.00000000       0.00000000       0.00000000       0.00000000
H        0.00000000       3.24026883      10.00000000        3       1.00000000       0.00000000       0.00000000       0.00000000
H        2.80615512       3.24026883      10.00000000        3       1.00000000       0.00000000       0.00000000       0.00000000
H        0.00000000       1.62013441      12.29121606        2       1.00000000       0.00000000       0.00000000       0.00000000
H        2.80615512       1.62013441      12.29121606        2       1.00000000       0.00000000       0.00000000       0.00000000
H        1.40307756       4.05033604      12.29121606        2       1.00000000       0.00000000       0.00000000       0.00000000
H        4.20923268       4.05033604      12.29121606        2       1.00000000       0.00000000       0.00000000       0.00000000
H        0.00000000       0.00000000      14.58243212        1       1.00000000       0.00000000       0.00000000       0.00000000
H        2.80615512       0.00000000      14.58243212        1       1.00000000       0.00000000       0.00000000       0.00000000
H        1.40307756       2.43020162      14.58243212        1       1.00000000       0.00000000       0.00000000       0.00000000
H        4.20923268       2.43020162      14.58243212        1       1.00000000       0.00000000       0.00000000       0.00000000
H        3.10508747       2.30895067       2.87338616        0       1.00000000       1.06746149      -1.97246267       0.85264420
H        0.63988249       4.47705453      19.33734118        0       1.00000000      -0.87165201       0.79421881       1.73500088
H        2.63615798       0.80857764       1.06147103        0       1.00000000       0.01316814      -0.85002952       1.36173357
H        3.43036422       1.67575231       5.79716709        0       1.00000000       1.39474018       0.67271442       0.78767037
H        3.79126819       1.21784097      18.52722270        0       1.00000000       4.24211580      -1.01006031       0.46073584
H        3.44281997       4.09947348      23.90770376        0       1.00000000       1.29616969       0.55008308       1.31076152
18
Lattice="5.612310241546866 0.0 0.0 0.0 4.860403243099165 0.0 0.0 0.0 24.582432123328676" Properties=species:S:1:pos:R:3:tags:I:1:masses:R:1:momenta:R:3 KEmax=23.26679191048647 iter=399 volume=670.5618179858607 ns_energy=9.823541163347382 last_walked_iter_clone=339 ns_P=0.0 config_n_global=399 ns_KE=17.94180685815218 pbc="T T T"
H        1.40307756       0.81006721      10.00000000        3       1.00000000       0.00000000       0.00000000       0.00000000
H        4.20923268       0.81006721      10.00000000        3       1.00000000       0.00000000       0.00000000       0.00000000
H        0.00000000       3.24026883      10.00000000        3       1.00000000       0.00000000       0.00000000       0.00000000
H        2.80615512       3.24026883      10.00000000        3       1.00000000       0.00000000       0.00000000       0.00000000
H        0.00000000       1.62013441      12.29121606        2       1.00000000       0.00000000       0.00000000       0.00000000
H        2.80615512       1.62013441      12.29121606        2       1.00000000       0.00000000       0.00000000       0.00000000
H        1.40307756       4.05033604      12.29121606        2       1.00000000       0.00000000       0.00000000       0.00000000
H        4.20923268       4.05033604      12.29121606        2       1.00000000       0.00000000       0.00000000       0.00000000
H        0.00000000       0.00000000      14.58243212        1       1.00000000       0.00000000       0.00000000       0.00000000
H        2.80615512       0.00000000      14.58243212        1       1.00000000       0.00000000       0.00000000       0.00000000
H        1.40307756       2.43020162      14.58243212        1       1.00000000       0.00000000       0.00000000       0.00000000
H        4.20923268       2.43020162      14.58243212        1       1.00000000       0.00000000       0.00000000       0.00000000
H        2.92490394       4.05874625      23.58675227        0       1.00000000       0.45561703      -1.66637889      -1.02940784
H        4.02250251       1.58587671      21.13784048        0       1.00000000       2.23385680      -0.24164456       0.58791789
H        3.29586497       2.52740249       5.56838446        0       1.00000000      -0.70503529       0.91438599       1.33031338
H        5.56500542       3.78530876       3.16961252        0       1.00000000      -0.78749455      -3.74005098      -1.21315822
H        1.49812319       1.34240921       3.38511206        0       1.00000000      -0.35053563      -0.41126196      -1.04923078
H        5.00420996       3.77562572      18.39616279        0       1.00000000      -1.50794874       1.19813358      -1.46977877
18
Lattice="5.612310241546866 0.0 0.0 0.0 4.860403243099165 0.0 0.0 0.0 24.582432123328676" Properties=species:S:1:pos:R:3:tags:I:1:masses:R:1:momenta:R:3 KEmax=23.26679191048647 iter=499 volume=670.5618179858607 ns_energy=8.20499651172883 last_walked_iter_clone=429 ns_P=0.0 config_n_global=499 ns_KE=16.092976612354658 pbc="T T T"
H        1.40307756       0.81006721      10.00000000        3       1.00000000       0.00000000       0.00000000       0.00000000
H        4.20923268       0.81006721      10.00000000        3       1.00000000       0.00000000       0.00000000       0.00000000
H        0.00000000       3.24026883      10.00000000        3       1.00000000       0.00000000       0.00000000       0.00000000
H        2.80615512       3.24026883      10.00000000        3       1.00000000       0.00000000       0.00000000       0.00000000
H        0.00000000       1.62013441      12.29121606        2       1.00000000       0.00000000       0.00000000       0.00000000
H        2.80615512       1.62013441      12.29121606        2       1.00000000       0.00000000       0.00000000       0.00000000
H        1.40307756       4.05033604      12.29121606        2       1.00000000       0.00000000       0.00000000       0.00000000
H        4.20923268       4.05033604      12.29121606        2       1.00000000       0.00000000       0.00000000       0.00000000
H        0.00000000       0.00000000      14.58243212        1       1.00000000       0.00000000       0.00000000       0.00000000
H        2.80615512       0.00000000      14.58243212        1       1.00000000       0.00000000       0.00000000       0.00000000
H        1.40307756       2.43020162      14.58243212        1       1.00000000       0.00000000       0.00000000       0.00000000
H        4.20923268       2.43020162      14.58243212        1       1.00000000       0.00000000       0.00000000       0.00000000
H        0.92836562       1.18842833       5.08074106        0       1.00000000      -1.20475325      -0.61384288       1.58279537
H        3.47110460       1.15851199       5.97508029        0       1.00000000      -0.15929661       0.32437707       1.85963266
H        0.10058210       0.83351246      16.87431139        0       1.00000000      -1.53837608       0.59375481       2.30690624
H        1.14232732       1.94974034       0.47269936        0       1.00000000       1.92578743       0.36106089       1.27435255
H        0.40970681       4.11134926       6.20425123        0       1.00000000      -1.71252789       1.09731261       1.30908268
H        1.59589104       1.32816006      21.30567716        0       1.00000000       0.67927578      -0.24586530      -2.09458368
18
Lattice="5.612310241546866 0.0 0.0 0.0 4.860403243099165 0.0 0.0 0.0 24.582432123328676" Properties=species:S:1:pos:R:3:tags:I:1:masses:R:1:momenta:R:3 KEmax=23.26679191048647 iter=599 volume=670.5618179858607 ns_energy=6.902525411420405 last_walked_iter_clone=549 ns_P=0.0 config_n_global=599 ns_KE=14.98705313864865 pbc="T T T"
H        1.40307756       0.81006721      10.00000000        3       1.00000000       0.00000000       0.00000000       0.00000000
H        4.20923268       0.81006721      10.00000000        3       1.00000000       0.00000000       0.00000000       0.00000000
H        0.00000000       3.24026883      10.00000000        3       1.00000000       0.00000000       0.00000000       0.00000000
H        2.80615512       3.24026883      10.00000000        3       1.00000000       0.00000000       0.00000000       0.00000000
H        0.00000000       1.62013441      12.29121606        2       1.00000000       0.00000000       0.00000000       0.00000000
H        2.80615512       1.62013441      12.29121606        2       1.00000000       0.00000000       0.00000000       0.00000000
H        1.40307756       4.05033604      12.29121606        2       1.00000000       0.00000000       0.00000000       0.00000000
H        4.20923268       4.05033604      12.29121606        2       1.00000000       0.00000000       0.00000000       0.00000000
H        0.00000000       0.00000000      14.58243212        1       1.00000000       0.00000000       0.00000000       0.00000000
H        2.80615512       0.00000000      14.58243212        1       1.00000000       0.00000000       0.00000000       0.00000000
H        1.40307756       2.43020162      14.58243212        1       1.00000000       0.00000000       0.00000000       0.00000000
H        4.20923268       2.43020162      14.58243212        1       1.00000000       0.00000000       0.00000000       0.00000000
H        3.45520128       3.55748138       3.20067868        0       1.00000000       0.98999683       0.92957900      -0.77393887
H        4.14498977       2.01302551      17.31141268        0       1.00000000      -1.52565126      -0.24212180       0.70728120
H        1.91844187       0.74334628       4.36529332        0       1.00000000       1.78102498      -1.60199600       0.51891559
H        5.38648684       1.92389689      24.33907563        0       1.00000000       0.38490154       1.22590457       1.68062205
H        4.23481506       2.99554756      20.65568868        0       1.00000000       1.70679519      -0.69439781      -0.73391439
H        3.40674906       0.20252429      21.63374399        0       1.00000000      -1.56210470      -1.82952472      -2.10711559
18
Lattice="5.612310241546866 0.0 0.0 0.0 4.860403243099165 0.0 0.0 0.0 24.582432123328676" Properties=species:S:1:pos:R:3:tags:I:1:masses:R:1:momenta:R:3 KEmax=23.26679191048647 iter=699 volume=670.5618179858607 ns_energy=5.626723643777567 last_walked_iter_clone=638 ns_P=0.0 config_n_global=699 ns_KE=14.028141694814902 pbc="T T T"
H        1.40307756       0.81006721      10.00000000        3       1.00000000       0.00000000       0.00000000       0.00000000
H        4.20923268       0.81006721      10.00000000        3       1.00000000       0.00000000       0.00000000       0.00000000
H        0.00000000       3.24026883      10.00000000        3       1.00000000       0.00000000       0.00000000       0.00000000
H        2.80615512       3.24026883      10.00000000        3       1.00000000       0.00000000       0.00000000       0.00000000
H        0.00000000       1.62013441      12.29121606        2       1.00000000       0.00000000       0.00000000       0.00000000
H        2.80615512       1.62013441      12.29121606        2       1.00000000       0.00000000       0.00000000       0.00000000
H        1.40307756       4.05033604      12.29121606        2       1.00000000       0.00000000       0.00000000       0.00000000
H        4.20923268       4.05033604      12.29121606        2       1.00000000       0.00000000       0.00000000       0.00000000
H        0.00000000       0.00000000      14.58243212        1       1.00000000       0.00000000       0.00000000       0.00000000
H        2.80615512       0.00000000      14.58243212        1       1.00000000       0.00000000       0.00000000       0.00000000
H        1.40307756       2.43020162      14.58243212        1       1.00000000       0.00000000       0.00000000       0.00000000
H        4.20923268       2.43020162      14.58243212        1       1.00000000       0.00000000       0.00000000       0.00000000
H        5.31316850       4.43488130      19.83321497        0       1.00000000       1.06291901      -2.87775244      -1.40792213
H        2.50616564       3.48896504       4.84953279        0       1.00000000      -1.30341009       1.42879002      -0.16686516
H        1.77003011       0.18003298       7.32222280        0       1.00000000       1.33036316       1.16330573       0.54089873
H        1.36884423       1.34536523       5.27145763        0       1.00000000      -1.46466021      -0.07514137       0.63973614
H        3.99833529       0.38643035       5.37942152        0       1.00000000       0.71279085       2.02158925       1.17242877
H        1.47348149       1.50480698      17.31320053        0       1.00000000      -0.06113404      -0.95187466       0.19869129
18
Lattice="5.612310241546866 0.0 0.0 0.0 4.860403243099165 0.0 0.0 0.0 24.582432123328676" Properties=species:S:1:pos:R:3:tags:I:1:masses:R:1:momenta:R:3 KEmax=23.26679191048647 iter=799 volume=670.5618179858607 ns_energy=4.569076270737544 last_walked_iter_clone=740 ns_P=0.0 config_n_global=799 ns_KE=12.20720477535705 pbc="T T T"
H        1.40307756       0.81006721      10.00000000        3       1.00000000       0.00000000       0.00000000       0.00000000
H        4.20923268       0.81006721      10.00000000        3       1.00000000       0.00000000       0.00000000       0.00000000
H        0.00000000       3.24026883      10.00000000        3       1.00000000       0.00000000       0.00000000       0.00000000
H        2.80615512       3.24026883      10.00000000        3       1.00000000       0.00000000       0.00000000       0.00000000
H        0.00000000       1.62013441      12.29121606        2       1.00000000       0.00000000       0.00000000       0.00000000
H        2.80615512       1.62013441      12.29121606        2       1.00000000       0.00000000       0.00000000       0.00000000
H        1.40307756       4.05033604      12.29121606        2       1.00000000       0.00000000       0.00000000       0.00000000
H        4.20923268       4.05033604      12.29121606        2       1.00000000       0.00000000       0.00000000       0.00000000
H        0.00000000       0.00000000      14.58243212        1       1.00000000       0.00000000       0.00000000       0.00000000
H        2.80615512       0.00000000      14.58243212        1       1.00000000       0.00000000       0.00000000       0.00000000
H        1.40307756       2.43020162      14.58243212        1       1.00000000       0.00000000       0.00000000       0.00000000
H        4.20923268       2.43020162      14.58243212        1       1.00000000       0.00000000       0.00000000       0.00000000
H        1.16695133       1.42435974      19.08141909        0       1.00000000       0.44642143       0.30545590       0.91895197
H        3.74928995       4.45817032       7.80401276        0       1.00000000      -1.23792581       1.18715173       0.27143568
H        1.96962688       2.45285608      16.65829291        0       1.00000000       1.71463319       0.16368700       0.16174298
H        5.58169195       1.35220162       3.65929304        0       1.00000000       0.30537404       1.30475040      -1.61061085
H        4.90268134       3.89775924      17.11604455        0       1.00000000      -1.15764243       2.23615856       0.48702994
H        5.36905264       1.83400639       0.67153150        0       1.00000000      -0.39347634      -2.26694703      -1.00381642
18
Lattice="5.612310241546866 0.0 0.0 0.0 4.860403243099165 0.0 0.0 0.0 24.582432123328676" Properties=species:S:1:pos:R:3:tags:I:1:masses:R:1:momenta:R:3 KEmax=23.26679191048647 iter=899 volume=670.5618179858607 ns_energy=3.5446655358510206 last_walked_iter_clone=815 ns_P=0.0 config_n_global=899 ns_KE=11.1909640960031 pbc="T T T"
H        1.40307756       0.81006721      10.00000000        3       1.00000000       0.00000000       0.00000000       0.00000000
H        4.20923268       0.81006721      10.00000000        3       1.00000000       0.00000000       0.00000000       0.00000000
H        0.00000000       3.24026883      10.00000000        3       1.00000000       0.00000000       0.00000000       0.00000000
H        2.80615512       3.24026883      10.00000000        3       1.00000000       0.00000000       0.00000000       0.00000000
H        0.00000000       1.62013441      12.29121606        2       1.00000000       0.00000000       0.00000000       0.00000000
H        2.80615512       1.62013441      12.29121606        2       1.00000000       0.00000000       0.00000000       0.00000000
H        1.40307756       4.05033604      12.29121606        2       1.00000000       0.00000000       0.00000000       0.00000000
H        4.20923268       4.05033604      12.29121606        2       1.00000000       0.00000000       0.00000000       0.00000000
H        0.00000000       0.00000000      14.58243212        1       1.00000000       0.00000000       0.00000000       0.00000000
H        2.80615512       0.00000000      14.58243212        1       1.00000000       0.00000000       0.00000000       0.00000000
H        1.40307756       2.43020162      14.58243212        1       1.00000000       0.00000000       0.00000000       0.00000000
H        4.20923268       2.43020162      14.58243212        1       1.00000000       0.00000000       0.00000000       0.00000000
H        5.34758223       0.10065255       1.80879375        0       1.00000000      -0.62728742       2.96538561       0.53283951
H        2.05164372       3.76927316      20.31422968        0       1.00000000       0.40811729       0.26501285      -0.07480129
H        0.07898038       1.46255647      18.46468929        0       1.00000000       1.68591860       1.75477729       0.13870327
H        4.93041109       4.21655705      16.69638354        0       1.00000000      -0.01924874      -1.35175761      -1.38028559
H        1.50961903       3.08718399      24.46236709        0       1.00000000       0.94660992      -0.03542617      -0.37660744
H        4.12758809       3.80984233      21.31802942        0       1.00000000      -1.05475083      -0.11850861      -0.91066410
18
Lattice="5.612310241546866 0.0 0.0 0.0 4.860403243099165 0.0 0.0 0.0 24.582432123328676" Properties=species:S:1:pos:R:3:tags:I:1:masses:R:1:momenta:R:3 KEmax=23.26679191048647 iter=999 volume=670.5618179858607 ns_energy=2.5030980493089103 last_walked_iter_clone=933 ns_P=0.0 config_n_global=999 ns_KE=10.267841770000608 pbc="T T T"
H        1.40307756       0.81006721      10.00000000        3       1.00000000       0.00000000       0.00000000       0.00000000
H        4.20923268       0.81006721      10.00000000        3       1.00000000       0.00000000       0.00000000       0.00000000
H        0.00000000       3.24026883      10.00000000        3       1.00000000       0.00000000       0.00000000       0.00000000
H        2.80615512       3.24026883      10.00000000        3       1.00000000       0.00000000       0.00000000       0.00000000
H        0.00000000       1.62013441      12.29121606        2       1.00000000       0.00000000       0.00000000       0.00000000
H        2.80615512       1.62013441      12.29121606        2       1.00000000       0.00000000       0.00000000       0.00000000
H        1.40307756       4.05033604      12.29121606        2       1.00000000       0.00000000       0.00000000       0.00000000
H        4.20923268       4.05033604      12.29121606        2       1.00000000       0.00000000       0.00000000       0.00000000
H        0.00000000       0.00000000      14.58243212        1       1.00000000       0.00000000       0.00000000       0.00000000
H        2.80615512       0.00000000      14.58243212        1       1.00000000       0.00000000       0.00000000       0.00000000
H        1.40307756       2.43020162      14.58243212        1       1.00000000       0.00000000       0.00000000       0.00000000
H        4.20923268       2.43020162      14.58243212        1       1.00000000       0.00000000       0.00000000       0.00000000
H        5.41891414       2.61435277       3.77730615        0       1.00000000       0.75815967      -0.31685366      -0.20921111
H        2.67181217       0.19125968      23.35488362        0       1.00000000       1.31826127      -0.70355028       0.45375690
H        1.10371104       2.13149932       7.56942063        0       1.00000000       0.30238502      -1.29916901       1.84248558
H        1.93464350       3.51898374       3.92416670        0       1.00000000       0.48152747      -0.40939487      -0.79265602
H        4.46193135       3.51728761      20.82429801        0       1.00000000      -0.07664133       1.01161878       0.34544947
H        1.04758042       3.30081186      22.90106112        0       1.00000000      -0.41629341       0.25133775       3.12908322
18
Lattice="5.612310241546866 0.0 0.0 0.0 4.860403243099165 0.0 0.0 0.0 24.582432123328676" Properties=species:S:1:pos:R:3:tags:I:1:masses:R:1:momenta:R:3 KEmax=23.26679191048647 iter=1099 volume=670.5618179858607 ns_energy=1.686536924012739 last_walked_iter_clone=1022 ns_P=0.0 config_n_global=1099 ns_KE=10.168703075340117 pbc="T T T"
H        1.40307756       0.81006721      10.00000000        3       1.00000000       0.00000000       0.00000000       0.00000000
H        4.20923268       0.81006721      10.00000000        3       1.00000000       0.00000000       0.00000000       0.00000000
H        0.00000000       3.24026883      10.00000000        3       1.00000000       0.00000000       0.00000000       0.00000000
H        2.80615512       3.24026883      10.00000000        3       1.00000000       0.00000000       0.00000000       0.00000000
H        0.00000000       1.62013441      12.29121606        2       1.00000000       0.00000000       0.00000000       0.00000000
H        2.80615512       1.62013441      12.29121606        2       1.00000000       0.00000000       0.00000000       0.00000000
H        1.40307756       4.05033604      12.29121606        2       1.00000000       0.00000000       0.00000000       0.00000000
H        4.20923268       4.05033604      12.29121606        2       1.00000000       0.00000000       0.00000000       0.00000000
H        0.00000000       0.00000000      14.58243212        1       1.00000000       0.00000000       0.00000000       0.00000000
H        2.80615512       0.00000000      14.58243212        1       1.00000000       0.00000000       0.00000000       0.00000000
H        1.40307756       2.43020162      14.58243212        1       1.00000000       0.00000000       0.00000000       0.00000000
H        4.20923268       2.43020162      14.58243212        1       1.00000000       0.00000000       0.00000000       0.00000000
H        0.54231521       4.68700631       5.09257629        0       1.00000000      -0.92738373      -0.51804855      -1.66679941
H        2.18259380       2.17718421       5.81379626        0       1.00000000      -0.67437012      -0.36023967       1.30567411
H        5.11320413       0.15687921      19.53911534        0       1.00000000      -0.30118899      -0.06165862      -0.07941356
H        2.94112546       1.75953290      24.61409238        0       1.00000000       1.99567134      -1.15136600       2.10472655
H        2.88553163       2.05012637      19.40349068        0       1.00000000      -0.58146132       0.73309997       1.68099493
H        0.03420145       2.37046961       7.60650589        0       1.00000000      -0.25873737      -0.01953657      -0.73060948
18
Lattice="5.612310241546866 0.0 0.0 0.0 4.860403243099165 0.0 0.0 0.0 24.582432123328676" Properties=species:S:1:pos:R:3:tags:I:1:masses:R:1:momenta:R:3 KEmax=23.26679191048647 iter=1199 volume=670.5618179858607 ns_energy=0.9204657700782827 last_walked_iter_clone=1063 ns_P=0.0 config_n_global=1199 ns_KE=9.022500092958511 pbc="T T T"