18
Lattice="5.612310241546866 0.0 0.0 0.0 4.860403243099165 0.0 0.0 0.0 24.582432123328676" Properties=species:S:1:pos:R:3:tags:I:1:masses:R:1:momenta:R:3:forces:R:3 KEmax=23.26679191048647 iter=119999 volume=670.5618179858607 ns_energy=-11.647137732046945 last_walked_iter_clone=116596 energy=-11.647137732046778 stress="0.008235481057554965 3.270342466328148e-09 -3.804620612272228e-09 3.270342466328148e-09 0.008228503617311162 3.1085805946315755e-08 -3.804620612272228e-09 3.1085805946315755e-08 0.004215218665290323" pbc="T T T"
H        1.40307756       0.81006721      10.00000000        3       1.00000000       0.00000000       0.00000000       0.00000000       0.00000000       0.00000000       0.00000000
H        4.20923268       0.81006721      10.00000000        3       1.00000000       0.00000000       0.00000000       0.00000000       0.00000000       0.00000000       0.00000000
H        0.00000000       3.24026883      10.00000000        3       1.00000000       0.00000000       0.00000000       0.00000000       0.00000000       0.00000000       0.00000000
H        2.80615512       3.24026883      10.00000000        3       1.00000000       0.00000000       0.00000000       0.00000000       0.00000000       0.00000000       0.00000000
H        0.00000000       1.62013441      12.29121606        2       1.00000000       0.00000000       0.00000000       0.00000000       0.00000000       0.00000000       0.00000000
H        2.80615512       1.62013441      12.29121606        2       1.00000000       0.00000000       0.00000000       0.00000000       0.00000000       0.00000000       0.00000000
H        1.40307756       4.05033604      12.29121606        2       1.00000000       0.00000000       0.00000000       0.00000000       0.00000000       0.00000000       0.00000000
H        4.20923268       4.05033604      12.29121606        2       1.00000000       0.00000000       0.00000000       0.00000000       0.00000000       0.00000000       0.00000000
H        0.00000000       0.00000000      14.58243212        1       1.00000000       0.00000000       0.00000000       0.00000000       0.00000000       0.00000000       0.00000000
H        2.80615512       0.00000000      14.58243212        1       1.00000000       0.00000000       0.00000000       0.00000000       0.00000000       0.00000000       0.00000000
H        1.40307756       2.43020162      14.58243212        1       1.00000000       0.00000000       0.00000000       0.00000000       0.00000000       0.00000000       0.00000000
H        4.20923268       2.43020162      14.58243212        1       1.00000000       0.00000000       0.00000000       0.00000000       0.00000000       0.00000000       0.00000000
H        5.60851800       1.60711579       7.79330508        0       1.00000000       0.00000083       0.00000062      -0.00000019       0.00000151       0.00000358       0.00000007
H        2.81646580       1.63473893       7.76898264        0       1.00000000       0.00000018       0.00000024       0.00000046      -0.00000299       0.00000342       0.00000192
H        4.19892202       4.06494091       7.76898302        0       1.00000000       0.00000027       0.00000091       0.00000079       0.00000159      -0.00000435      -0.00000075
H        1.40686955       4.03731686       7.79330476        0       1.00000000       0.00000034       0.00000155       0.00000069      -0.00000123      -0.00000258       0.00000071
H        5.60605240       3.22099704       5.56586723        0       1.00000000       0.00000117       0.00000041       0.00000035      -0.00000023       0.00000055       0.00000076
H        1.40933506       0.79079507       5.56586715        0       1.00000000      -0.00000088       0.00000102      -0.00000082       0.00000022      -0.00000017      -0.00000167
18
Lattice="5.612310241546866 0.0 0.0 0.0 4.860403243099165 0.0 0.0 0.0 24.582432123328676" Properties=species:S:1:pos:R:3:tags:I:1:masses:R:1:momenta:R:3:forces:R:3 KEmax=23.26679191048647 iter=119999 volume=670.5618179858607 ns_energy=-11.647137732046419 last_walked_iter_clone=119598 energy=-11.647137732046778 stress="0.008235481057554965 3.270342466328148e-09 -3.804620612272228e-09 3.270342466328148e-09 0.008228503617311162 3.1085805946315755e-08 -3.804620612272228e-09 3.1085805946315755e-08 0.004215218665290323" pbc="T T T"
H        1.40307756       0.81006721      10.00000000        3       1.00000000       0.00000000       0.00000000       0.00000000       0.00000000       0.00000000       0.00000000
H        4.20923268       0.81006721      10.00000000        3       1.00000000       0.00000000       0.00000000       0.00000000       0.00000000       0.00000000       0.00000000
H        0.00000000       3.24026883      10.00000000        3       1.00000000       0.00000000       0.00000000       0.00000000       0.00000000       0.00000000       0.00000000
H        2.80615512       3.24026883      10.00000000        3       1.00000000       0.00000000       0.00000000       0.00000000       0.00000000       0.00000000       0.00000000
H        0.00000000       1.62013441      12.29121606        2       1.00000000       0.00000000       0.00000000       0.00000000       0.00000000       0.00000000       0.00000000
H        2.80615512       1.62013441      12.29121606        2       1.00000000       0.00000000       0.00000000       0.00000000       0.00000000       0.00000000       0.00000000
H        1.40307756       4.05033604      12.29121606        2       1.00000000       0.00000000       0.00000000       0.00000000       0.00000000       0.00000000       0.00000000
H        4.20923268       4.05033604      12.29121606        2       1.00000000       0.00000000       0.00000000       0.00000000       0.00000000       0.00000000       0.00000000
H        0.00000000       0.00000000      14.58243212        1       1.00000000       0.00000000       0.00000000       0.00000000       0.00000000       0.00000000       0.00000000
H        2.80615512       0.00000000      14.58243212        1       1.00000000       0.00000000       0.00000000       0.00000000       0.00000000       0.00000000       0.00000000
H        1.40307756       2.43020162      14.58243212        1       1.00000000       0.00000000       0.00000000       0.00000000       0.00000000       0.00000000       0.00000000
H        4.20923268       2.43020162      14.58243212        1       1.00000000       0.00000000       0.00000000       0.00000000       0.00000000       0.00000000       0.00000000
H        5.60851830       1.60711591       7.79330495        0       1.00000000       0.00000073       0.00000006       0.00000037       0.00000151       0.00000358       0.00000007
H        2.81646585       1.63473965       7.76898279        0       1.00000000       0.00000066      -0.00000089       0.00000019      -0.00000299       0.00000342       0.00000192
H        4.19892190       4.06494151       7.76898259        0       1.00000000      -0.00000089      -0.00000081      -0.00000000       0.00000159      -0.00000435      -0.00000075
H        1.40686972       4.03731862       7.79330499        0       1.00000000      -0.00000016      -0.00000026       0.00000010      -0.00000123      -0.00000258       0.00000071
H        5.60605149       3.22099786       5.56586699        0       1.00000000       0.00000065      -0.00000091       0.00000038      -0.00000023       0.00000055       0.00000076
H        1.40933515       0.79079617       5.56586714        0       1.00000000      -0.00000045      -0.00000100      -0.00000020       0.00000022      -0.00000017      -0.00000167
18
Lattice="5.612310241546866 0.0 0.0 0.0 4.860403243099165 0.0 0.0 0.0 24.582432123328676" Properties=species:S:1:pos:R:3:tags:I:1:masses:R:1:momenta:R:3:forces:R:3 KEmax=23.26679191048647 iter=119999 volume=670.5618179858607 ns_energy=-11.647137732046305 last_walked_iter_clone=117972 energy=-11.647137732046778 stress="0.008235481057554965 3.270342466328148e-09 -3.804620612272228e-09 3.270342466328148e-09 0.008228503617311162 3.1085805946315755e-08 -3.804620612272228e-09 3.1085805946315755e-08 0.004215218665290323" pbc="T T T"
H        1.40307756       0.81006721      10.00000000        3       1.00000000       0.00000000       0.00000000       0.00000000       0.00000000       0.00000000       0.00000000
H        4.20923268       0.81006721      10.00000000        3       1.00000000       0.00000000       0.00000000       0.00000000       0.00000000       0.00000000       0.00000000
H        0.00000000       3.24026883      10.00000000        3       1.00000000       0.00000000       0.00000000       0.00000000       0.00000000       0.00000000       0.00000000
H        2.80615512       3.24026883      10.00000000        3       1.00000000       0.00000000       0.00000000       0.00000000       0.00000000       0.00000000       0.00000000
H        0.00000000       1.62013441      12.29121606        2       1.00000000       0.00000000       0.00000000       0.00000000       0.00000000       0.00000000       0.00000000
H        2.80615512       1.62013441      12.29121606        2       1.00000000       0.00000000       0.00000000       0.00000000       0.00000000       0.00000000       0.00000000
H        1.40307756       4.05033604      12.29121606        2       1.00000000       0.00000000       0.00000000       0.00000000       0.00000000       0.00000000       0.00000000
H        4.20923268       4.05033604      12.29121606        2       1.00000000       0.00000000       0.00000000       0.00000000       0.00000000       0.00000000       0.00000000
H        0.00000000       0.00000000      14.58243212        1       1.00000000       0.00000000       0.00000000       0.00000000       0.00000000       0.00000000       0.00000000
H        2.80615512       0.00000000      14.58243212        1       1.00000000       0.00000000       0.00000000       0.00000000       0.00000000       0.00000000       0.00000000
H        1.40307756       2.43020162      14.58243212        1       1.00000000       0.00000000       0.00000000       0.00000000       0.00000000       0.00000000       0.00000000
H        4.20923268       2.43020162      14.58243212        1       1.00000000       0.00000000       0.00000000       0.00000000       0.00000000       0.00000000       0.00000000
H        5.60851850       1.60711593       7.79330506        0       1.00000000       0.00000014       0.00000094       0.00000044       0.00000151       0.00000358       0.00000007
H        2.81646609       1.63473891       7.76898251        0       1.00000000       0.00000129       0.00000027      -0.00000090      -0.00000299       0.00000342       0.00000192
H        4.19892178       4.06494026       7.76898290        0       1.00000000       0.00000041       0.00000061       0.00000041       0.00000159      -0.00000435      -0.00000075
H        1.40686924       4.03731741       7.79330516        0       1.00000000       0.00000024      -0.00000149       0.00000138      -0.00000123      -0.00000258       0.00000071
H        5.60605265       3.22099653       5.56586757        0       1.00000000       0.00000044      -0.00000032      -0.00000016      -0.00000023       0.00000055       0.00000076
H        1.40933461       0.79079543       5.56586672        0       1.00000000       0.00000091       0.00000038      -0.00000058       0.00000022      -0.00000017      -0.00000167
18
Lattice="5.612310241546866 0.0 0.0 0.0 4.860403243099165 0.0 0.0 0.0 24.582432123328676" Properties=species:S:1:pos:R:3:tags:I:1:masses:R:1:momenta:R:3:forces:R:3 KEmax=23.26679191048647 iter=119999 volume=670.5618179858607 ns_energy=-11.64713773204633 last_walked_iter_clone=117614 energy=-11.647137732046778 stress="0.008235481057554965 3.270342466328148e-09 -3.804620612272228e-09 3.270342466328148e-09 0.008228503617311162 3.1085805946315755e-08 -3.804620612272228e-09 3.1085805946315755e-08 0.004215218665290323" pbc="T T T"
H        1.40307756       0.81006721      10.00000000        3       1.00000000       0.00000000       0.00000000       0.00000000       0.00000000       0.00000000       0.00000000
H        4.20923268       0.81006721      10.00000000        3       1.00000000       0.00000000       0.00000000       0.00000000       0.00000000       0.00000000       0.00000000
H        0.00000000       3.24026883      10.00000000        3       1.00000000       0.00000000       0.00000000       0.00000000       0.00000000       0.00000000       0.00000000
H        2.80615512       3.24026883      10.00000000        3       1.00000000       0.00000000       0.00000000       0.00000000       0.00000000       0.00000000       0.00000000
H        0.00000000       1.62013441      12.29121606        2       1.00000000       0.00000000       0.00000000       0.00000000       0.00000000       0.00000000       0.00000000
H        2.80615512       1.62013441      12.29121606        2       1.00000000       0.00000000       0.00000000       0.00000000       0.00000000       0.00000000       0.00000000
H        1.40307756       4.05033604      12.29121606        2       1.00000000       0.00000000       0.00000000       0.00000000       0.00000000       0.00000000       0.00000000
H        4.20923268       4.05033604      12.29121606        2       1.00000000       0.00000000       0.00000000       0.00000000       0.00000000       0.00000000       0.00000000
H        0.00000000       0.00000000      14.58243212        1       1.00000000       0.00000000       0.00000000       0.00000000       0.00000000       0.00000000       0.00000000
H        2.80615512       0.00000000      14.58243212        1       1.00000000       0.00000000       0.00000000       0.00000000       0.00000000       0.00000000       0.00000000
H        1.40307756       2.43020162      14.58243212        1       1.00000000       0.00000000       0.00000000       0.00000000       0.00000000       0.00000000       0.00000000
H        4.20923268       2.43020162      14.58243212        1       1.00000000       0.00000000       0.00000000       0.00000000       0.00000000       0.00000000       0.00000000
H        5.60851757       1.60711643       7.79330477        0       1.00000000       0.00000053       0.00000016      -0.00000037       0.00000151       0.00000358       0.00000007
H        2.81646597       1.63473967       7.76898266        0       1.00000000      -0.00000015      -0.00000086       0.00000001      -0.00000299       0.00000342       0.00000192
H        4.19892147       4.06494086       7.76898356        0       1.00000000       0.00000055       0.00000137       0.00000042       0.00000159      -0.00000435      -0.00000075
H        1.40686910       4.03731805       7.79330487        0       1.00000000       0.00000061      -0.00000113      -0.00000037      -0.00000123      -0.00000258       0.00000071
H        5.60605142       3.22099963       5.56586723        0       1.00000000      -0.00000039      -0.00000071      -0.00000056      -0.00000023       0.00000055       0.00000076
H        1.40933543       0.79079738       5.56586737        0       1.00000000      -0.00000034       0.00000062      -0.00000015       0.00000022      -0.00000017      -0.00000167
18
Lattice="5.612310241546866 0.0 0.0 0.0 4.860403243099165 0.0 0.0 0.0 24.582432123328676" Properties=species:S:1:pos:R:3:tags:I:1:masses:R:1:momenta:R:3:forces:R:3 KEmax=23.26679191048647 iter=119999 volume=670.5618179858607 ns_energy=-11.647137732046582 last_walked_iter_clone=118201 energy=-11.647137732046778 stress="0.008235481057554965 3.270342466328148e-09 -3.804620612272228e-09 3.270342466328148e-09 0.008228503617311162 3.1085805946315755e-08 -3.804620612272228e-09 3.1085805946315755e-08 0.004215218665290323" pbc="T T T"
H        1.40307756       0.81006721      10.00000000        3       1.00000000       0.00000000       0.00000000       0.00000000       0.00000000       0.00000000       0.00000000
H        4.20923268       0.81006721      10.00000000        3       1.00000000       0.00000000       0.00000000       0.00000000       0.00000000       0.00000000       0.00000000
H        0.00000000       3.24026883      10.00000000        3       1.00000000       0.00000000       0.00000000       0.00000000       0.00000000       0.00000000       0.00000000
H        2.80615512       3.24026883      10.00000000        3       1.00000000       0.00000000       0.00000000       0.00000000       0.00000000       0.00000000       0.00000000
H        0.00000000       1.62013441      12.29121606        2       1.00000000       0.00000000       0.00000000       0.00000000       0.00000000       0.00000000       0.00000000
H        2.80615512       1.62013441      12.29121606        2       1.00000000       0.00000000       0.00000000       0.00000000       0.00000000       0.00000000       0.00000000
H        1.40307756       4.05033604      12.29121606        2       1.00000000       0.00000000       0.00000000       0.00000000       0.00000000       0.00000000       0.00000000
H        4.20923268       4.05033604      12.29121606        2       1.00000000       0.00000000       0.00000000       0.00000000       0.00000000       0.00000000       0.00000000
H        0.00000000       0.00000000      14.58243212        1       1.00000000       0.00000000       0.00000000       0.00000000       0.00000000       0.00000000       0.00000000
H        2.80615512       0.00000000      14.58243212        1       1.00000000       0.00000000       0.00000000       0.00000000       0.00000000       0.00000000       0.00000000
H        1.40307756       2.43020162      14.58243212        1       1.00000000       0.00000000       0.00000000       0.00000000       0.00000000       0.00000000       0.00000000
H        4.20923268       2.43020162      14.58243212        1       1.00000000       0.00000000       0.00000000       0.00000000       0.00000000       0.00000000       0.00000000
H        5.60851812       1.60711607       7.79330491        0       1.00000000       0.00000240      -0.00000004       0.00000030       0.00000151       0.00000358       0.00000007
H        2.81646632       1.63473905       7.76898268        0       1.00000000      -0.00000004       0.00000096       0.00000009      -0.00000299       0.00000342       0.00000192
H        4.19892207       4.06494075       7.76898320        0       1.00000000      -0.00000014       0.00000011       0.00000011       0.00000159      -0.00000435      -0.00000075
H        1.40686958       4.03731705       7.79330465        0       1.00000000      -0.00000068       0.00000003       0.00000114      -0.00000123      -0.00000258       0.00000071
H        5.60605208       3.22099768       5.56586727        0       1.00000000       0.00000110       0.00000092      -0.00000010      -0.00000023       0.00000055       0.00000076
H        1.40933448       0.79079600       5.56586712        0       1.00000000       0.00000000       0.00000011      -0.00000101       0.00000022      -0.00000017      -0.00000167
18
Lattice="5.612310241546866 0.0 0.0 0.0 4.860403243099165 0.0 0.0 0.0 24.582432123328676" Properties=species:S:1:pos:R:3:tags:I:1:masses:R:1:momenta:R:3:forces:R:3 KEmax=23.26679191048647 iter=119999 volume=670.5618179858607 ns_energy=-11.647137732046621 last_walked_iter_clone=118867 energy=-11.647137732046778 stress="0.008235481057554965 3.270342466328148e-09 -3.804620612272228e-09 3.270342466328148e-09 0.008228503617311162 3.1085805946315755e-08 -3.804620612272228e-09 3.1085805946315755e-08 0.004215218665290323" pbc="T T T"
H        1.40307756       0.81006721      10.00000000        3       1.00000000       0.00000000       0.00000000       0.00000000       0.00000000       0.00000000       0.00000000
H        4.20923268       0.81006721      10.00000000        3       1.00000000       0.00000000       0.00000000       0.00000000       0.00000000       0.00000000       0.00000000
H        0.00000000       3.24026883      10.00000000        3       1.00000000       0.00000000       0.00000000       0.00000000       0.00000000       0.00000000       0.00000000
H        2.80615512       3.24026883      10.00000000        3       1.00000000       0.00000000       0.00000000       0.00000000       0.00000000       0.00000000       0.00000000
H        0.00000000       1.62013441      12.29121606        2       1.00000000       0.00000000       0.00000000       0.00000000       0.00000000       0.00000000       0.00000000
H        2.80615512       1.62013441      12.29121606        2       1.00000000       0.00000000       0.00000000       0.00000000       0.00000000       0.00000000       0.00000000
H        1.40307756       4.05033604      12.29121606        2       1.00000000       0.00000000       0.00000000       0.00000000       0.00000000       0.00000000       0.00000000
H        4.20923268       4.05033604      12.29121606        2       1.00000000       0.00000000       0.00000000       0.00000000       0.00000000       0.00000000       0.00000000
H        0.00000000       0.00000000      14.58243212        1       1.00000000       0.00000000       0.00000000       0.00000000       0.00000000       0.00000000       0.00000000
H        2.80615512       0.00000000      14.58243212        1       1.00000000       0.00000000       0.00000000       0.00000000       0.00000000       0.00000000       0.00000000
H        1.40307756       2.43020162      14.58243212        1       1.00000000       0.00000000       0.00000000       0.00000000       0.00000000       0.00000000       0.00000000
H        4.20923268       2.43020162      14.58243212        1       1.00000000       0.00000000       0.00000000       0.00000000       0.00000000       0.00000000       0.00000000
H        5.60851748       1.60711585       7.79330554        0       1.00000000      -0.00000018      -0.00000062      -0.00000008       0.00000151       0.00000358       0.00000007
H        2.81646546       1.63473909       7.76898344        0       1.00000000      -0.00000080      -0.00000002      -0.00000024      -0.00000299       0.00000342       0.00000192
H        4.19892135       4.06494086       7.76898270        0       1.00000000      -0.00000046       0.00000031       0.00000008       0.00000159      -0.00000435      -0.00000075
H        1.40686859       4.03731701       7.79330499        0       1.00000000       0.00000136      -0.00000013      -0.00000012      -0.00000123      -0.00000258       0.00000071
H        5.60605207       3.22099626       5.56586750        0       1.00000000       0.00000004      -0.00000149       0.00000008      -0.00000023       0.00000055       0.00000076
H        1.40933385       0.79079421       5.56586780        0       1.00000000      -0.00000025      -0.00000025       0.00000033       0.00000022      -0.00000017      -0.00000167
18
Lattice="5.612310241546866 0.0 0.0 0.0 4.860403243099165 0.0 0.0 0.0 24.582432123328676" Properties=species:S:1:pos:R:3:tags:I:1:masses:R:1:momenta:R:3:forces:R:3 KEmax=23.26679191048647 iter=119999 volume=670.5618179858607 ns_energy=-11.647137732046938 last_walked_iter_clone=112541 energy=-11.647137732046778 stress="0.008235481057554965 3.270342466328148e-09 -3.804620612272228e-09 3.270342466328148e-09 0.008228503617311162 3.1085805946315755e-08 -3.804620612272228e-09 3.1085805946315755e-08 0.004215218665290323" pbc="T T T"
H        1.40307756       0.81006721      10.00000000        3       1.00000000       0.00000000       0.00000000       0.00000000       0.00000000       0.00000000       0.00000000
H        4.20923268       0.81006721      10.00000000        3       1.00000000       0.00000000       0.00000000       0.00000000       0.00000000       0.00000000       0.00000000
H        0.00000000       3.24026883      10.00000000        3       1.00000000       0.00000000       0.00000000       0.00000000       0.00000000       0.00000000       0.00000000
H        2.80615512       3.24026883      10.00000000        3       1.00000000       0.00000000       0.00000000       0.00000000       0.00000000       0.00000000       0.00000000
H        0.00000000       1.62013441      12.29121606        2       1.00000000       0.00000000       0.00000000       0.00000000       0.00000000       0.00000000       0.00000000
H        2.80615512       1.62013441      12.29121606        2       1.00000000       0.00000000       0.00000000       0.00000000       0.00000000       0.00000000       0.00000000
H        1.40307756       4.05033604      12.29121606        2       1.00000000       0.00000000       0.00000000       0.00000000       0.00000000       0.00000000       0.00000000
H        4.20923268       4.05033604      12.29121606        2       1.00000000       0.00000000       0.00000000       0.00000000       0.00000000       0.00000000       0.00000000
H        0.00000000       0.00000000      14.58243212        1       1.00000000       0.00000000       0.00000000       0.00000000       0.00000000       0.00000000       0.00000000
H        2.80615512       0.00000000      14.58243212        1       1.00000000       0.00000000       0.00000000       0.00000000       0.00000000       0.00000000       0.00000000
H        1.40307756       2.43020162      14.58243212        1       1.00000000       0.00000000       0.00000000       0.00000000       0.00000000       0.00000000       0.00000000
H        4.20923268       2.43020162      14.58243212        1       1.00000000       0.00000000       0.00000000       0.00000000       0.00000000       0.00000000       0.00000000
H        5.60851800       1.60711579       7.79330508        0       1.00000000      -0.00000034      -0.00000039       0.00000039       0.00000151       0.00000358       0.00000007
H        2.81646580       1.63473893       7.76898264        0       1.00000000      -0.00000154      -0.00000066      -0.00000083      -0.00000299       0.00000342       0.00000192
H        4.19892202       4.06494091       7.76898302        0       1.00000000      -0.00000034       0.00000065       0.00000189       0.00000159      -0.00000435      -0.00000075
H        1.40686955       4.03731686       7.79330476        0       1.00000000      -0.00000007       0.00000019       0.00000032      -0.00000123      -0.00000258       0.00000071
H        5.60605240       3.22099704       5.56586723        0       1.00000000       0.00000066       0.00000007      -0.00000079      -0.00000023       0.00000055       0.00000076
H        1.40933506       0.79079507       5.56586715        0       1.00000000       0.00000004       0.00000100       0.00000055       0.00000022      -0.00000017      -0.00000167
18
Lattice="5.612310241546866 0.0 0.0 0.0 4.860403243099165 0.0 0.0 0.0 24.582432123328676" Properties=species:S:1:pos:R:3:tags:I:1:masses:R:1:momenta:R:3:forces:R:3 KEmax=23.26679191048647 iter=119999 volume=670.5618179858607 ns_energy=-11.647137732046472 last_walked_iter_clone=117703 energy=-11.647137732046778 stress="0.008235481057554965 3.270342466328148e-09 -3.804620612272228e-09 3.270342466328148e-09 0.008228503617311162 3.1085805946315755e-08 -3.804620612272228e-09 3.1085805946315755e-08 0.004215218665290323" pbc="T T T"
H        1.40307756       0.81006721      10.00000000        3       1.00000000       0.00000000       0.00000000       0.00000000       0.00000000       0.00000000       0.00000000
H        4.20923268       0.81006721      10.00000000        3       1.00000000       0.00000000       0.00000000       0.00000000       0.00000000       0.00000000       0.00000000
H        0.00000000       3.24026883      10.00000000        3       1.00000000       0.00000000       0.00000000       0.00000000       0.00000000       0.00000000       0.00000000
H        2.80615512       3.24026883      10.00000000        3       1.00000000       0.00000000       0.00000000       0.00000000       0.00000000       0.00000000       0.00000000
H        0.00000000       1.62013441      12.29121606        2       1.00000000       0.00000000       0.00000000       0.00000000       0.00000000       0.00000000       0.00000000
H        2.80615512       1.62013441      12.29121606        2       1.00000000       0.00000000       0.00000000       0.00000000       0.00000000       0.00000000       0.00000000
H        1.40307756       4.05033604      12.29121606        2       1.00000000       0.00000000       0.00000000       0.00000000       0.00000000       0.00000000       0.00000000
H        4.20923268       4.05033604      12.29121606        2       1.00000000       0.00000000       0.00000000       0.00000000       0.00000000       0.00000000       0.00000000
H        0.00000000       0.00000000      14.58243212        1       1.00000000       0.00000000       0.00000000       0.00000000       0.00000000       0.00000000       0.00000000
H        2.80615512       0.00000000      14.58243212        1       1.00000000       0.00000000       0.00000000       0.00000000       0.00000000       0.00000000       0.00000000
H        1.40307756       2.43020162      14.58243212        1       1.00000000       0.00000000       0.00000000       0.00000000       0.00000000       0.00000000       0.00000000
H        4.20923268       2.43020162      14.58243212        1       1.00000000       0.00000000       0.00000000       0.00000000       0.00000000       0.00000000       0.00000000
H        5.60851803       1.60711523       7.79330554        0       1.00000000      -0.00000008       0.00000173       0.00000057       0.00000151       0.00000358       0.00000007
H        2.81646631       1.63473877       7.76898276        0       1.00000000      -0.00000051       0.00000065       0.00000098      -0.00000299       0.00000342       0.00000192
H        4.19892189       4.06494059       7.76898314        0       1.00000000      -0.00000042      -0.00000091       0.00000048       0.00000159      -0.00000435      -0.00000075