18
Lattice="5.612310241546866 0.0 0.0 0.0 4.860403243099165 0.0 0.0 0.0 24.582432123328676" Properties=species:S:1:pos:R:3:tags:I:1:masses:R:1:momenta:R:3:forces:R:3 KEmax=23.26679191048647 iter=86987 volume=670.5618179858607 ns_energy=-11.647137731964767 last_walked_iter_clone=86837 energy=-11.64713773199486 stress="0.008235498530323213 -7.52415515420008e-09 -1.090354056964956e-08 -7.52415515420008e-09 0.008228521928408047 4.2314066507885196e-08 -1.090354056964956e-08 4.2314066507885196e-08 0.004215263441752697" pbc="T T T"
H        1.40307756       0.81006721      10.00000000        3       1.00000000       0.00000000       0.00000000       0.00000000       0.00000000       0.00000000       0.00000000
H        4.20923268       0.81006721      10.00000000        3       1.00000000       0.00000000       0.00000000       0.00000000       0.00000000       0.00000000       0.00000000
H        0.00000000       3.24026883      10.00000000        3       1.00000000       0.00000000       0.00000000       0.00000000       0.00000000       0.00000000       0.00000000
H        2.80615512       3.24026883      10.00000000        3       1.00000000       0.00000000       0.00000000       0.00000000       0.00000000       0.00000000       0.00000000
H        0.00000000       1.62013441      12.29121606        2       1.00000000       0.00000000       0.00000000       0.00000000       0.00000000       0.00000000       0.00000000
H        2.80615512       1.62013441      12.29121606        2       1.00000000       0.00000000       0.00000000       0.00000000       0.00000000       0.00000000       0.00000000
H        1.40307756       4.05033604      12.29121606        2       1.00000000       0.00000000       0.00000000       0.00000000       0.00000000       0.00000000       0.00000000
H        4.20923268       4.05033604      12.29121606        2       1.00000000       0.00000000       0.00000000       0.00000000       0.00000000       0.00000000       0.00000000
H        0.00000000       0.00000000      14.58243212        1       1.00000000       0.00000000       0.00000000       0.00000000       0.00000000       0.00000000       0.00000000
H        2.80615512       0.00000000      14.58243212        1       1.00000000       0.00000000       0.00000000       0.00000000       0.00000000       0.00000000       0.00000000
H        1.40307756       2.43020162      14.58243212        1       1.00000000       0.00000000       0.00000000       0.00000000       0.00000000       0.00000000       0.00000000
H        4.20923268       2.43020162      14.58243212        1       1.00000000       0.00000000       0.00000000       0.00000000       0.00000000       0.00000000       0.00000000
H        5.60851740       1.60711421       7.79330386        0       1.00000000      -0.00000073      -0.00000219      -0.00000046       0.00000029      -0.00000018      -0.00000814
H        2.81646636       1.63473815       7.76898277        0       1.00000000      -0.00000019      -0.00000246      -0.00000335      -0.00000039      -0.00000148      -0.00000004
H        4.19892119       4.06493848       7.76898181        0       1.00000000      -0.00000113      -0.00000298      -0.00000023       0.00001254      -0.00000484      -0.00000480
H        1.40687012       4.03731903       7.79330580        0       1.00000000       0.00000286       0.00000557       0.00000051      -0.00000995       0.00000433       0.00000138
H        5.60605478       3.22099788       5.56586603        0       1.00000000      -0.00000427      -0.00000367      -0.00000178       0.00000062      -0.00000125       0.00000773
H        1.40933474       0.79079614       5.56586814        0       1.00000000      -0.00000042      -0.00000349      -0.00000019      -0.00000358       0.00000447       0.00000492
18
Lattice="5.612310241546866 0.0 0.0 0.0 4.860403243099165 0.0 0.0 0.0 24.582432123328676" Properties=species:S:1:pos:R:3:tags:I:1:masses:R:1:momenta:R:3:forces:R:3 KEmax=23.26679191048647 iter=86987 volume=670.5618179858607 ns_energy=-11.647137731960786 last_walked_iter_clone=86827 energy=-11.64713773199486 stress="0.008235498530323213 -7.52415515420008e-09 -1.090354056964956e-08 -7.52415515420008e-09 0.008228521928408047 4.2314066507885196e-08 -1.090354056964956e-08 4.2314066507885196e-08 0.004215263441752697" pbc="T T T"
H        1.40307756       0.81006721      10.00000000        3       1.00000000       0.00000000       0.00000000       0.00000000       0.00000000       0.00000000       0.00000000
H        4.20923268       0.81006721      10.00000000        3       1.00000000       0.00000000       0.00000000       0.00000000       0.00000000       0.00000000       0.00000000
H        0.00000000       3.24026883      10.00000000        3       1.00000000       0.00000000       0.00000000       0.00000000       0.00000000       0.00000000       0.00000000
H        2.80615512       3.24026883      10.00000000        3       1.00000000       0.00000000       0.00000000       0.00000000       0.00000000       0.00000000       0.00000000
H        0.00000000       1.62013441      12.29121606        2       1.00000000       0.00000000       0.00000000       0.00000000       0.00000000       0.00000000       0.00000000
H        2.80615512       1.62013441      12.29121606        2       1.00000000       0.00000000       0.00000000       0.00000000       0.00000000       0.00000000       0.00000000
H        1.40307756       4.05033604      12.29121606        2       1.00000000       0.00000000       0.00000000       0.00000000       0.00000000       0.00000000       0.00000000
H        4.20923268       4.05033604      12.29121606        2       1.00000000       0.00000000       0.00000000       0.00000000       0.00000000       0.00000000       0.00000000
H        0.00000000       0.00000000      14.58243212        1       1.00000000       0.00000000       0.00000000       0.00000000       0.00000000       0.00000000       0.00000000
H        2.80615512       0.00000000      14.58243212        1       1.00000000       0.00000000       0.00000000       0.00000000       0.00000000       0.00000000       0.00000000
H        1.40307756       2.43020162      14.58243212        1       1.00000000       0.00000000       0.00000000       0.00000000       0.00000000       0.00000000       0.00000000
H        4.20923268       2.43020162      14.58243212        1       1.00000000       0.00000000       0.00000000       0.00000000       0.00000000       0.00000000       0.00000000
H        5.60851807       1.60711563       7.79330668        0       1.00000000       0.00000520       0.00000300       0.00000251       0.00000029      -0.00000018      -0.00000814
H        2.81646684       1.63473946       7.76898310        0       1.00000000       0.00000198      -0.00000387       0.00000115      -0.00000039      -0.00000148      -0.00000004
H        4.19892079       4.06494163       7.76898364        0       1.00000000      -0.00000477       0.00000274      -0.00000164       0.00001254      -0.00000484      -0.00000480
H        1.40686963       4.03731739       7.79330712        0       1.00000000      -0.00000264       0.00000101      -0.00000325      -0.00000995       0.00000433       0.00000138
H        5.60605440       3.22099748       5.56586909        0       1.00000000       0.00000266      -0.00000304      -0.00000245       0.00000062      -0.00000125       0.00000773
H        1.40933795       0.79079688       5.56586857        0       1.00000000       0.00000203      -0.00000140      -0.00000057      -0.00000358       0.00000447       0.00000492
18
Lattice="5.612310241546866 0.0 0.0 0.0 4.860403243099165 0.0 0.0 0.0 24.582432123328676" Properties=species:S:1:pos:R:3:tags:I:1:masses:R:1:momenta:R:3:forces:R:3 KEmax=23.26679191048647 iter=86987 volume=670.5618179858607 ns_energy=-11.64713773196311 last_walked_iter_clone=86984 energy=-11.64713773199486 stress="0.008235498530323213 -7.52415515420008e-09 -1.090354056964956e-08 -7.52415515420008e-09 0.008228521928408047 4.2314066507885196e-08 -1.090354056964956e-08 4.2314066507885196e-08 0.004215263441752697" pbc="T T T"
H        1.40307756       0.81006721      10.00000000        3       1.00000000       0.00000000       0.00000000       0.00000000       0.00000000       0.00000000       0.00000000
H        4.20923268       0.81006721      10.00000000        3       1.00000000       0.00000000       0.00000000       0.00000000       0.00000000       0.00000000       0.00000000
H        0.00000000       3.24026883      10.00000000        3       1.00000000       0.00000000       0.00000000       0.00000000       0.00000000       0.00000000       0.00000000
H        2.80615512       3.24026883      10.00000000        3       1.00000000       0.00000000       0.00000000       0.00000000       0.00000000       0.00000000       0.00000000
H        0.00000000       1.62013441      12.29121606        2       1.00000000       0.00000000       0.00000000       0.00000000       0.00000000       0.00000000       0.00000000
H        2.80615512       1.62013441      12.29121606        2       1.00000000       0.00000000       0.00000000       0.00000000       0.00000000       0.00000000       0.00000000
H        1.40307756       4.05033604      12.29121606        2       1.00000000       0.00000000       0.00000000       0.00000000       0.00000000       0.00000000       0.00000000
H        4.20923268       4.05033604      12.29121606        2       1.00000000       0.00000000       0.00000000       0.00000000       0.00000000       0.00000000       0.00000000
H        0.00000000       0.00000000      14.58243212        1       1.00000000       0.00000000       0.00000000       0.00000000       0.00000000       0.00000000       0.00000000
H        2.80615512       0.00000000      14.58243212        1       1.00000000       0.00000000       0.00000000       0.00000000       0.00000000       0.00000000       0.00000000
H        1.40307756       2.43020162      14.58243212        1       1.00000000       0.00000000       0.00000000       0.00000000       0.00000000       0.00000000       0.00000000
H        4.20923268       2.43020162      14.58243212        1       1.00000000       0.00000000       0.00000000       0.00000000       0.00000000       0.00000000       0.00000000
H        5.60851927       1.60711454       7.79330646        0       1.00000000      -0.00000133      -0.00000085       0.00000044       0.00000029      -0.00000018      -0.00000814
H        2.81646666       1.63473984       7.76898179        0       1.00000000       0.00000021      -0.00000331      -0.00000221      -0.00000039      -0.00000148      -0.00000004
H        4.19892232       4.06494413       7.76898474        0       1.00000000       0.00000235      -0.00000003       0.00000196       0.00001254      -0.00000484      -0.00000480
H        1.40686885       4.03731592       7.79330539        0       1.00000000      -0.00000217      -0.00000028       0.00000360      -0.00000995       0.00000433       0.00000138
H        5.60605178       3.22099789       5.56586810        0       1.00000000      -0.00000122       0.00000182       0.00000028       0.00000062      -0.00000125       0.00000773
H        1.40933070       0.79079719       5.56587056        0       1.00000000       0.00000039       0.00000142       0.00000205      -0.00000358       0.00000447       0.00000492
18
Lattice="5.612310241546866 0.0 0.0 0.0 4.860403243099165 0.0 0.0 0.0 24.582432123328676" Properties=species:S:1:pos:R:3:tags:I:1:masses:R:1:momenta:R:3:forces:R:3 KEmax=23.26679191048647 iter=86987 volume=670.5618179858607 ns_energy=-11.64713773196241 last_walked_iter_clone=86968 energy=-11.64713773199486 stress="0.008235498530323213 -7.52415515420008e-09 -1.090354056964956e-08 -7.52415515420008e-09 0.008228521928408047 4.2314066507885196e-08 -1.090354056964956e-08 4.2314066507885196e-08 0.004215263441752697" pbc="T T T"
H        1.40307756       0.81006721      10.00000000        3       1.00000000       0.00000000       0.00000000       0.00000000       0.00000000       0.00000000       0.00000000
H        4.20923268       0.81006721      10.00000000        3       1.00000000       0.00000000       0.00000000       0.00000000       0.00000000       0.00000000       0.00000000
H        0.00000000       3.24026883      10.00000000        3       1.00000000       0.00000000       0.00000000       0.00000000       0.00000000       0.00000000       0.00000000
H        2.80615512       3.24026883      10.00000000        3       1.00000000       0.00000000       0.00000000       0.00000000       0.00000000       0.00000000       0.00000000
H        0.00000000       1.62013441      12.29121606        2       1.00000000       0.00000000       0.00000000       0.00000000       0.00000000       0.00000000       0.00000000
H        2.80615512       1.62013441      12.29121606        2       1.00000000       0.00000000       0.00000000       0.00000000       0.00000000       0.00000000       0.00000000
H        1.40307756       4.05033604      12.29121606        2       1.00000000       0.00000000       0.00000000       0.00000000       0.00000000       0.00000000       0.00000000
H        4.20923268       4.05033604      12.29121606        2       1.00000000       0.00000000       0.00000000       0.00000000       0.00000000       0.00000000       0.00000000
H        0.00000000       0.00000000      14.58243212        1       1.00000000       0.00000000       0.00000000       0.00000000       0.00000000       0.00000000       0.00000000
H        2.80615512       0.00000000      14.58243212        1       1.00000000       0.00000000       0.00000000       0.00000000       0.00000000       0.00000000       0.00000000
H        1.40307756       2.43020162      14.58243212        1       1.00000000       0.00000000       0.00000000       0.00000000       0.00000000       0.00000000       0.00000000
H        4.20923268       2.43020162      14.58243212        1       1.00000000       0.00000000       0.00000000       0.00000000       0.00000000       0.00000000       0.00000000
H        5.60851602       1.60711855       7.79330544        0       1.00000000      -0.00000140      -0.00000139      -0.00000003       0.00000029      -0.00000018      -0.00000814
H        2.81646602       1.63474136       7.76898086        0       1.00000000       0.00000355      -0.00000188      -0.00000052      -0.00000039      -0.00000148      -0.00000004
H        4.19892265       4.06494264       7.76898274        0       1.00000000       0.00000064       0.00000218       0.00000102       0.00001254      -0.00000484      -0.00000480
H        1.40687065       4.03732001       7.79330504        0       1.00000000      -0.00000005      -0.00000132      -0.00000295      -0.00000995       0.00000433       0.00000138
H        5.60604887       3.22100182       5.56586823        0       1.00000000       0.00000275       0.00000059       0.00000175       0.00000062      -0.00000125       0.00000773
H        1.40933080       0.79080132       5.56586883        0       1.00000000      -0.00000609      -0.00000259       0.00000348      -0.00000358       0.00000447       0.00000492
18
Lattice="5.612310241546866 0.0 0.0 0.0 4.860403243099165 0.0 0.0 0.0 24.582432123328676" Properties=species:S:1:pos:R:3:tags:I:1:masses:R:1:momenta:R:3:forces:R:3 KEmax=23.26679191048647 iter=86987 volume=670.5618179858607 ns_energy=-11.647137731960731 last_walked_iter_clone=86903 energy=-11.64713773199486 stress="0.008235498530323213 -7.52415515420008e-09 -1.090354056964956e-08 -7.52415515420008e-09 0.008228521928408047 4.2314066507885196e-08 -1.090354056964956e-08 4.2314066507885196e-08 0.004215263441752697" pbc="T T T"
H        1.40307756       0.81006721      10.00000000        3       1.00000000       0.00000000       0.00000000       0.00000000       0.00000000       0.00000000       0.00000000
H        4.20923268       0.81006721      10.00000000        3       1.00000000       0.00000000       0.00000000       0.00000000       0.00000000       0.00000000       0.00000000
H        0.00000000       3.24026883      10.00000000        3       1.00000000       0.00000000       0.00000000       0.00000000       0.00000000       0.00000000       0.00000000
H        2.80615512       3.24026883      10.00000000        3       1.00000000       0.00000000       0.00000000       0.00000000       0.00000000       0.00000000       0.00000000
H        0.00000000       1.62013441      12.29121606        2       1.00000000       0.00000000       0.00000000       0.00000000       0.00000000       0.00000000       0.00000000
H        2.80615512       1.62013441      12.29121606        2       1.00000000       0.00000000       0.00000000       0.00000000       0.00000000       0.00000000       0.00000000
H        1.40307756       4.05033604      12.29121606        2       1.00000000       0.00000000       0.00000000       0.00000000       0.00000000       0.00000000       0.00000000
H        4.20923268       4.05033604      12.29121606        2       1.00000000       0.00000000       0.00000000       0.00000000       0.00000000       0.00000000       0.00000000
H        0.00000000       0.00000000      14.58243212        1       1.00000000       0.00000000       0.00000000       0.00000000       0.00000000       0.00000000       0.00000000
H        2.80615512       0.00000000      14.58243212        1       1.00000000       0.00000000       0.00000000       0.00000000       0.00000000       0.00000000       0.00000000
H        1.40307756       2.43020162      14.58243212        1       1.00000000       0.00000000       0.00000000       0.00000000       0.00000000       0.00000000       0.00000000
H        4.20923268       2.43020162      14.58243212        1       1.00000000       0.00000000       0.00000000       0.00000000       0.00000000       0.00000000       0.00000000
H        5.60851597       1.60711531       7.79330621        0       1.00000000      -0.00000215      -0.00000164       0.00000250       0.00000029      -0.00000018      -0.00000814
H        2.81646392       1.63473929       7.76898342        0       1.00000000       0.00000040      -0.00000461       0.00000141      -0.00000039      -0.00000148      -0.00000004
H        4.19892067       4.06494149       7.76898485        0       1.00000000      -0.00000168       0.00000377       0.00000102       0.00001254      -0.00000484      -0.00000480
H        1.40686863       4.03731756       7.79330540        0       1.00000000      -0.00000382       0.00000289      -0.00000022      -0.00000995       0.00000433       0.00000138
H        5.60604949       3.22099409       5.56586834        0       1.00000000      -0.00000253       0.00000320      -0.00000279       0.00000062      -0.00000125       0.00000773
H        1.40933640       0.79079593       5.56586828        0       1.00000000      -0.00000273       0.00000125      -0.00000039      -0.00000358       0.00000447       0.00000492
18
Lattice="5.612310241546866 0.0 0.0 0.0 4.860403243099165 0.0 0.0 0.0 24.582432123328676" Properties=species:S:1:pos:R:3:tags:I:1:masses:R:1:momenta:R:3:forces:R:3 KEmax=23.26679191048647 iter=86987 volume=670.5618179858607 ns_energy=-11.647137731961465 last_walked_iter_clone=86877 energy=-11.64713773199486 stress="0.008235498530323213 -7.52415515420008e-09 -1.090354056964956e-08 -7.52415515420008e-09 0.008228521928408047 4.2314066507885196e-08 -1.090354056964956e-08 4.2314066507885196e-08 0.004215263441752697" pbc="T T T"
H        1.40307756       0.81006721      10.00000000        3       1.00000000       0.00000000       0.00000000       0.00000000       0.00000000       0.00000000       0.00000000
H        4.20923268       0.81006721      10.00000000        3       1.00000000       0.00000000       0.00000000       0.00000000       0.00000000       0.00000000       0.00000000
H        0.00000000       3.24026883      10.00000000        3       1.00000000       0.00000000       0.00000000       0.00000000       0.00000000       0.00000000       0.00000000
H        2.80615512       3.24026883      10.00000000        3       1.00000000       0.00000000       0.00000000       0.00000000       0.00000000       0.00000000       0.00000000
H        0.00000000       1.62013441      12.29121606        2       1.00000000       0.00000000       0.00000000       0.00000000       0.00000000       0.00000000       0.00000000
H        2.80615512       1.62013441      12.29121606        2       1.00000000       0.00000000       0.00000000       0.00000000       0.00000000       0.00000000       0.00000000
H        1.40307756       4.05033604      12.29121606        2       1.00000000       0.00000000       0.00000000       0.00000000       0.00000000       0.00000000       0.00000000
H        4.20923268       4.05033604      12.29121606        2       1.00000000       0.00000000       0.00000000       0.00000000       0.00000000       0.00000000       0.00000000
H        0.00000000       0.00000000      14.58243212        1       1.00000000       0.00000000       0.00000000       0.00000000       0.00000000       0.00000000       0.00000000
H        2.80615512       0.00000000      14.58243212        1       1.00000000       0.00000000       0.00000000       0.00000000       0.00000000       0.00000000       0.00000000
H        1.40307756       2.43020162      14.58243212        1       1.00000000       0.00000000       0.00000000       0.00000000       0.00000000       0.00000000       0.00000000
H        4.20923268       2.43020162      14.58243212        1       1.00000000       0.00000000       0.00000000       0.00000000       0.00000000       0.00000000       0.00000000
H        5.60851697       1.60711746       7.79330439        0       1.00000000      -0.00000114      -0.00000044       0.00000253       0.00000029      -0.00000018      -0.00000814
H        2.81646523       1.63473903       7.76898262        0       1.00000000       0.00000045       0.00000231      -0.00000046      -0.00000039      -0.00000148      -0.00000004
H        4.19891861       4.06494040       7.76898151        0       1.00000000       0.00000089       0.00000243       0.00000455       0.00001254      -0.00000484      -0.00000480
H        1.40686911       4.03731821       7.79330270        0       1.00000000      -0.00000089       0.00000539       0.00000261      -0.00000995       0.00000433       0.00000138
H        5.60604964       3.22099807       5.56586638        0       1.00000000      -0.00000061       0.00000141       0.00000203       0.00000062      -0.00000125       0.00000773
H        1.40932827       0.79079737       5.56586691        0       1.00000000      -0.00000368      -0.00000234      -0.00000006      -0.00000358       0.00000447       0.00000492
18
Lattice="5.612310241546866 0.0 0.0 0.0 4.860403243099165 0.0 0.0 0.0 24.582432123328676" Properties=species:S:1:pos:R:3:tags:I:1:masses:R:1:momenta:R:3:forces:R:3 KEmax=23.26679191048647 iter=86987 volume=670.5618179858607 ns_energy=-11.647137731961466 last_walked_iter_clone=86948 energy=-11.64713773199486 stress="0.008235498530323213 -7.52415515420008e-09 -1.090354056964956e-08 -7.52415515420008e-09 0.008228521928408047 4.2314066507885196e-08 -1.090354056964956e-08 4.2314066507885196e-08 0.004215263441752697" pbc="T T T"
H        1.40307756       0.81006721      10.00000000        3       1.00000000       0.00000000       0.00000000       0.00000000       0.00000000       0.00000000       0.00000000
H        4.20923268       0.81006721      10.00000000        3       1.00000000       0.00000000       0.00000000       0.00000000       0.00000000       0.00000000       0.00000000
H        0.00000000       3.24026883      10.00000000        3       1.00000000       0.00000000       0.00000000       0.00000000       0.00000000       0.00000000       0.00000000
H        2.80615512       3.24026883      10.00000000        3       1.00000000       0.00000000       0.00000000       0.00000000       0.00000000       0.00000000       0.00000000
H        0.00000000       1.62013441      12.29121606        2       1.00000000       0.00000000       0.00000000       0.00000000       0.00000000       0.00000000       0.00000000
H        2.80615512       1.62013441      12.29121606        2       1.00000000       0.00000000       0.00000000       0.00000000       0.00000000       0.00000000       0.00000000
H        1.40307756       4.05033604      12.29121606        2       1.00000000       0.00000000       0.00000000       0.00000000       0.00000000       0.00000000       0.00000000
H        4.20923268       4.05033604      12.29121606        2       1.00000000       0.00000000       0.00000000       0.00000000       0.00000000       0.00000000       0.00000000
H        0.00000000       0.00000000      14.58243212        1       1.00000000       0.00000000       0.00000000       0.00000000       0.00000000       0.00000000       0.00000000
H        2.80615512       0.00000000      14.58243212        1       1.00000000       0.00000000       0.00000000       0.00000000       0.00000000       0.00000000       0.00000000
H        1.40307756       2.43020162      14.58243212        1       1.00000000       0.00000000       0.00000000       0.00000000       0.00000000       0.00000000       0.00000000
H        4.20923268       2.43020162      14.58243212        1       1.00000000       0.00000000       0.00000000       0.00000000       0.00000000       0.00000000       0.00000000
H        5.60851803       1.60711422       7.79330663        0       1.00000000       0.00000034      -0.00000057      -0.00000118       0.00000029      -0.00000018      -0.00000814
H        2.81646372       1.63473937       7.76898277        0       1.00000000      -0.00000161      -0.00000106      -0.00000233      -0.00000039      -0.00000148      -0.00000004
H        4.19892396       4.06494054       7.76898274        0       1.00000000       0.00000171      -0.00000069      -0.00000178       0.00001254      -0.00000484      -0.00000480
H        1.40687050       4.03731596       7.79330337        0       1.00000000      -0.00000340       0.00000408      -0.00000275      -0.00000995       0.00000433       0.00000138
H        5.60604993       3.22099759       5.56586770        0       1.00000000       0.00000289       0.00000197      -0.00000013       0.00000062      -0.00000125       0.00000773
H        1.40933600       0.79079507       5.56586799        0       1.00000000       0.00000053       0.00000091      -0.00000410      -0.00000358       0.00000447       0.00000492
18
Lattice="5.612310241546866 0.0 0.0 0.0 4.860403243099165 0.0 0.0 0.0 24.582432123328676" Properties=species:S:1:pos:R:3:tags:I:1:masses:R:1:momenta:R:3:forces:R:3 KEmax=23.26679191048647 iter=86987 volume=670.5618179858607 ns_energy=-11.647137731964929 last_walked_iter_clone=86940 energy=-11.64713773199486 stress="0.008235498530323213 -7.52415515420008e-09 -1.090354056964956e-08 -7.52415515420008e-09 0.008228521928408047 4.2314066507885196e-08 -1.090354056964956e-08 4.2314066507885196e-08 0.004215263441752697" pbc="T T T"
H        1.40307756       0.81006721      10.00000000        3       1.00000000       0.00000000       0.00000000       0.00000000       0.00000000       0.00000000       0.00000000
H        4.20923268       0.81006721      10.00000000        3       1.00000000       0.00000000       0.00000000       0.00000000       0.00000000       0.00000000       0.00000000
H        0.00000000       3.24026883      10.00000000        3       1.00000000       0.00000000       0.00000000       0.00000000       0.00000000       0.00000000       0.00000000
H        2.80615512       3.24026883      10.00000000        3       1.00000000       0.00000000       0.00000000       0.00000000       0.00000000       0.00000000       0.00000000
H        0.00000000       1.62013441      12.29121606        2       1.00000000       0.00000000       0.00000000       0.00000000       0.00000000       0.00000000       0.00000000
H        2.80615512       1.62013441      12.29121606        2       1.00000000       0.00000000       0.00000000       0.00000000       0.00000000       0.00000000       0.00000000
H        1.40307756       4.05033604      12.29121606        2       1.00000000       0.00000000       0.00000000       0.00000000       0.00000000       0.00000000       0.00000000
H        4.20923268       4.05033604      12.29121606        2       1.00000000       0.00000000       0.00000000       0.00000000       0.00000000       0.00000000       0.00000000
H        0.00000000       0.00000000      14.58243212        1       1.00000000       0.00000000       0.00000000       0.00000000       0.00000000       0.00000000       0.00000000
H        2.80615512       0.00000000      14.58243212        1       1.00000000       0.00000000       0.00000000       0.00000000       0.00000000       0.00000000       0.00000000
H        1.40307756       2.43020162      14.58243212        1       1.00000000       0.00000000       0.00000000       0.00000000       0.00000000       0.00000000       0.00000000
H        4.20923268       2.43020162      14.58243212        1       1.00000000       0.00000000       0.00000000       0.00000000       0.00000000       0.00000000       0.00000000
H        5.60851861       1.60711546       7.79330428        0       1.00000000       0.00000046      -0.00000114       0.00000034       0.00000029      -0.00000018      -0.00000814
H        2.81646665       1.63473857       7.76898454        0       1.00000000      -0.00000178      -0.00000469       0.00000273      -0.00000039      -0.00000148      -0.00000004
H        4.19892046       4.06494152       7.76898257        0       1.00000000      -0.00000234      -0.00000081      -0.00000444       0.00001254      -0.00000484      -0.00000480