18
Lattice="5.612310241546866 0.0 0.0 0.0 4.860403243099165 0.0 0.0 0.0 14.582432123328676" Properties=species:S:1:pos:R:3:tags:I:1:masses:R:1:momenta:R:3:forces:R:3 KEmax=23.26679191048647 iter=91423 volume=397.78090899293073 ns_energy=-11.658226224031354 last_walked_iter_clone=91389 energy=-11.658226224054232 stress="0.014141468032518973 -1.6537142460557545e-08 3.577948772232399e-09 -1.6537142460557545e-08 0.014213162210762676 1.1470942781736384e-08 3.577948772232399e-09 1.1470942781736384e-08 0.008373279460221749" pbc="T T T"
H        1.40307756       0.81006721       5.00000000        3       1.00000000       0.00000000       0.00000000       0.00000000       0.00000000       0.00000000       0.00000000
H        4.20923268       0.81006721       5.00000000        3       1.00000000       0.00000000       0.00000000       0.00000000       0.00000000       0.00000000       0.00000000
H        0.00000000       3.24026883       5.00000000        3       1.00000000       0.00000000       0.00000000       0.00000000       0.00000000       0.00000000       0.00000000
H        2.80615512       3.24026883       5.00000000        3       1.00000000       0.00000000       0.00000000       0.00000000       0.00000000       0.00000000       0.00000000
H        0.00000000       1.62013441       7.29121606        2       1.00000000       0.00000000       0.00000000       0.00000000       0.00000000       0.00000000       0.00000000
H        2.80615512       1.62013441       7.29121606        2       1.00000000       0.00000000       0.00000000       0.00000000       0.00000000       0.00000000       0.00000000
H        1.40307756       4.05033604       7.29121606        2       1.00000000       0.00000000       0.00000000       0.00000000       0.00000000       0.00000000       0.00000000
H        4.20923268       4.05033604       7.29121606        2       1.00000000       0.00000000       0.00000000       0.00000000       0.00000000       0.00000000       0.00000000
H        0.00000000       0.00000000       9.58243212        1       1.00000000       0.00000000       0.00000000       0.00000000       0.00000000       0.00000000       0.00000000
H        2.80615512       0.00000000       9.58243212        1       1.00000000       0.00000000       0.00000000       0.00000000       0.00000000       0.00000000       0.00000000
H        1.40307756       2.43020162       9.58243212        1       1.00000000       0.00000000       0.00000000       0.00000000       0.00000000       0.00000000       0.00000000
H        4.20923268       2.43020162       9.58243212        1       1.00000000       0.00000000       0.00000000       0.00000000       0.00000000       0.00000000       0.00000000
H        2.80623021       1.62011869      11.81409841        0       1.00000000       0.00000199       0.00000002       0.00000111      -0.00000344       0.00000090       0.00000005
H        4.20915989       4.05032212      11.81409831        0       1.00000000       0.00000091       0.00000034      -0.00000028       0.00000124       0.00000121       0.00000281
H        1.40315132       4.05035090      11.81395123        0       1.00000000      -0.00000233       0.00000140      -0.00000011      -0.00000041      -0.00000558       0.00000081
H        5.61223713       1.62015145      11.81395099        0       1.00000000       0.00000091      -0.00000129      -0.00000040       0.00000054       0.00000165       0.00000570
H        4.21928834       2.43005166       2.76570259        0       1.00000000       0.00000036      -0.00000122       0.00000179       0.00000009       0.00000263      -0.00000082
H        2.79609859       4.86025141       2.76570246        0       1.00000000      -0.00000276      -0.00000354       0.00000230      -0.00000155      -0.00000178       0.00000416
18
Lattice="5.612310241546866 0.0 0.0 0.0 4.860403243099165 0.0 0.0 0.0 14.582432123328676" Properties=species:S:1:pos:R:3:tags:I:1:masses:R:1:momenta:R:3:forces:R:3 KEmax=23.26679191048647 iter=91423 volume=397.78090899293073 ns_energy=-11.658226224031916 last_walked_iter_clone=91408 energy=-11.658226224054232 stress="0.014141468032518973 -1.6537142460557545e-08 3.577948772232399e-09 -1.6537142460557545e-08 0.014213162210762676 1.1470942781736384e-08 3.577948772232399e-09 1.1470942781736384e-08 0.008373279460221749" pbc="T T T"
H        1.40307756       0.81006721       5.00000000        3       1.00000000       0.00000000       0.00000000       0.00000000       0.00000000       0.00000000       0.00000000
H        4.20923268       0.81006721       5.00000000        3       1.00000000       0.00000000       0.00000000       0.00000000       0.00000000       0.00000000       0.00000000
H        0.00000000       3.24026883       5.00000000        3       1.00000000       0.00000000       0.00000000       0.00000000       0.00000000       0.00000000       0.00000000
H        2.80615512       3.24026883       5.00000000        3       1.00000000       0.00000000       0.00000000       0.00000000       0.00000000       0.00000000       0.00000000
H        0.00000000       1.62013441       7.29121606        2       1.00000000       0.00000000       0.00000000       0.00000000       0.00000000       0.00000000       0.00000000
H        2.80615512       1.62013441       7.29121606        2       1.00000000       0.00000000       0.00000000       0.00000000       0.00000000       0.00000000       0.00000000
H        1.40307756       4.05033604       7.29121606        2       1.00000000       0.00000000       0.00000000       0.00000000       0.00000000       0.00000000       0.00000000
H        4.20923268       4.05033604       7.29121606        2       1.00000000       0.00000000       0.00000000       0.00000000       0.00000000       0.00000000       0.00000000
H        0.00000000       0.00000000       9.58243212        1       1.00000000       0.00000000       0.00000000       0.00000000       0.00000000       0.00000000       0.00000000
H        2.80615512       0.00000000       9.58243212        1       1.00000000       0.00000000       0.00000000       0.00000000       0.00000000       0.00000000       0.00000000
H        1.40307756       2.43020162       9.58243212        1       1.00000000       0.00000000       0.00000000       0.00000000       0.00000000       0.00000000       0.00000000
H        4.20923268       2.43020162       9.58243212        1       1.00000000       0.00000000       0.00000000       0.00000000       0.00000000       0.00000000       0.00000000
H        2.80622772       1.62012010      11.81409785        0       1.00000000      -0.00000068      -0.00000171      -0.00000156      -0.00000344       0.00000090       0.00000005
H        4.20915916       4.05032090      11.81409907        0       1.00000000      -0.00000114      -0.00000205      -0.00000068       0.00000124       0.00000121       0.00000281
H        1.40315218       4.05035319      11.81395074        0       1.00000000       0.00000096      -0.00000084      -0.00000117      -0.00000041      -0.00000558       0.00000081
H        5.61223478       1.62015110      11.81395099        0       1.00000000       0.00000175       0.00000342       0.00000388       0.00000054       0.00000165       0.00000570
H        4.21928860       2.43005104       2.76570405        0       1.00000000       0.00000155       0.00000108       0.00000090       0.00000009       0.00000263      -0.00000082
H        2.79610129       4.86025296       2.76570376        0       1.00000000       0.00000077      -0.00000011      -0.00000188      -0.00000155      -0.00000178       0.00000416
18
Lattice="5.612310241546866 0.0 0.0 0.0 4.860403243099165 0.0 0.0 0.0 14.582432123328676" Properties=species:S:1:pos:R:3:tags:I:1:masses:R:1:momenta:R:3:forces:R:3 KEmax=23.26679191048647 iter=91423 volume=397.78090899293073 ns_energy=-11.658226224032564 last_walked_iter_clone=91419 energy=-11.658226224054232 stress="0.014141468032518973 -1.6537142460557545e-08 3.577948772232399e-09 -1.6537142460557545e-08 0.014213162210762676 1.1470942781736384e-08 3.577948772232399e-09 1.1470942781736384e-08 0.008373279460221749" pbc="T T T"
H        1.40307756       0.81006721       5.00000000        3       1.00000000       0.00000000       0.00000000       0.00000000       0.00000000       0.00000000       0.00000000
H        4.20923268       0.81006721       5.00000000        3       1.00000000       0.00000000       0.00000000       0.00000000       0.00000000       0.00000000       0.00000000
H        0.00000000       3.24026883       5.00000000        3       1.00000000       0.00000000       0.00000000       0.00000000       0.00000000       0.00000000       0.00000000
H        2.80615512       3.24026883       5.00000000        3       1.00000000       0.00000000       0.00000000       0.00000000       0.00000000       0.00000000       0.00000000
H        0.00000000       1.62013441       7.29121606        2       1.00000000       0.00000000       0.00000000       0.00000000       0.00000000       0.00000000       0.00000000
H        2.80615512       1.62013441       7.29121606        2       1.00000000       0.00000000       0.00000000       0.00000000       0.00000000       0.00000000       0.00000000
H        1.40307756       4.05033604       7.29121606        2       1.00000000       0.00000000       0.00000000       0.00000000       0.00000000       0.00000000       0.00000000
H        4.20923268       4.05033604       7.29121606        2       1.00000000       0.00000000       0.00000000       0.00000000       0.00000000       0.00000000       0.00000000
H        0.00000000       0.00000000       9.58243212        1       1.00000000       0.00000000       0.00000000       0.00000000       0.00000000       0.00000000       0.00000000
H        2.80615512       0.00000000       9.58243212        1       1.00000000       0.00000000       0.00000000       0.00000000       0.00000000       0.00000000       0.00000000
H        1.40307756       2.43020162       9.58243212        1       1.00000000       0.00000000       0.00000000       0.00000000       0.00000000       0.00000000       0.00000000
H        4.20923268       2.43020162       9.58243212        1       1.00000000       0.00000000       0.00000000       0.00000000       0.00000000       0.00000000       0.00000000
H        2.80622856       1.62011851      11.81409762        0       1.00000000       0.00000430       0.00000096       0.00000064      -0.00000344       0.00000090       0.00000005
H        4.20915810       4.05032000      11.81409714        0       1.00000000      -0.00000225      -0.00000070       0.00000259       0.00000124       0.00000121       0.00000281
H        1.40315116       4.05035163      11.81395120        0       1.00000000      -0.00000002      -0.00000358      -0.00000023      -0.00000041      -0.00000558       0.00000081
H        5.61223700       1.62015189      11.81395057        0       1.00000000      -0.00000220      -0.00000125      -0.00000010       0.00000054       0.00000165       0.00000570
H        4.21928995       2.43005266       2.76570365        0       1.00000000       0.00000020      -0.00000175      -0.00000055       0.00000009       0.00000263      -0.00000082
H        2.79610081       4.86025379       2.76570431        0       1.00000000      -0.00000077      -0.00000020      -0.00000184      -0.00000155      -0.00000178       0.00000416
18
Lattice="5.612310241546866 0.0 0.0 0.0 4.860403243099165 0.0 0.0 0.0 14.582432123328676" Properties=species:S:1:pos:R:3:tags:I:1:masses:R:1:momenta:R:3:forces:R:3 KEmax=23.26679191048647 iter=91423 volume=397.78090899293073 ns_energy=-11.658226224032465 last_walked_iter_clone=91328 energy=-11.658226224054232 stress="0.014141468032518973 -1.6537142460557545e-08 3.577948772232399e-09 -1.6537142460557545e-08 0.014213162210762676 1.1470942781736384e-08 3.577948772232399e-09 1.1470942781736384e-08 0.008373279460221749" pbc="T T T"
H        1.40307756       0.81006721       5.00000000        3       1.00000000       0.00000000       0.00000000       0.00000000       0.00000000       0.00000000       0.00000000
H        4.20923268       0.81006721       5.00000000        3       1.00000000       0.00000000       0.00000000       0.00000000       0.00000000       0.00000000       0.00000000
H        0.00000000       3.24026883       5.00000000        3       1.00000000       0.00000000       0.00000000       0.00000000       0.00000000       0.00000000       0.00000000
H        2.80615512       3.24026883       5.00000000        3       1.00000000       0.00000000       0.00000000       0.00000000       0.00000000       0.00000000       0.00000000
H        0.00000000       1.62013441       7.29121606        2       1.00000000       0.00000000       0.00000000       0.00000000       0.00000000       0.00000000       0.00000000
H        2.80615512       1.62013441       7.29121606        2       1.00000000       0.00000000       0.00000000       0.00000000       0.00000000       0.00000000       0.00000000
H        1.40307756       4.05033604       7.29121606        2       1.00000000       0.00000000       0.00000000       0.00000000       0.00000000       0.00000000       0.00000000
H        4.20923268       4.05033604       7.29121606        2       1.00000000       0.00000000       0.00000000       0.00000000       0.00000000       0.00000000       0.00000000
H        0.00000000       0.00000000       9.58243212        1       1.00000000       0.00000000       0.00000000       0.00000000       0.00000000       0.00000000       0.00000000
H        2.80615512       0.00000000       9.58243212        1       1.00000000       0.00000000       0.00000000       0.00000000       0.00000000       0.00000000       0.00000000
H        1.40307756       2.43020162       9.58243212        1       1.00000000       0.00000000       0.00000000       0.00000000       0.00000000       0.00000000       0.00000000
H        4.20923268       2.43020162       9.58243212        1       1.00000000       0.00000000       0.00000000       0.00000000       0.00000000       0.00000000       0.00000000
H        2.80622889       1.62011916      11.81409756        0       1.00000000      -0.00000223      -0.00000095       0.00000111      -0.00000344       0.00000090       0.00000005
H        4.20916055       4.05032075      11.81409747        0       1.00000000      -0.00000072      -0.00000104       0.00000130       0.00000124       0.00000121       0.00000281
H        1.40315297       4.05035274      11.81395197        0       1.00000000      -0.00000140      -0.00000189       0.00000159      -0.00000041      -0.00000558       0.00000081
H        5.61223597       1.62015167      11.81395113        0       1.00000000       0.00000130       0.00000088       0.00000487       0.00000054       0.00000165       0.00000570
H        4.21928778       2.43005396       2.76570248        0       1.00000000      -0.00000309      -0.00000109      -0.00000135       0.00000009       0.00000263      -0.00000082
H        2.79609747       4.86025496       2.76570460        0       1.00000000       0.00000055       0.00000101       0.00000128      -0.00000155      -0.00000178       0.00000416
18
Lattice="5.612310241546866 0.0 0.0 0.0 4.860403243099165 0.0 0.0 0.0 14.582432123328676" Properties=species:S:1:pos:R:3:tags:I:1:masses:R:1:momenta:R:3:forces:R:3 KEmax=23.26679191048647 iter=91423 volume=397.78090899293073 ns_energy=-11.658226224031827 last_walked_iter_clone=91343 energy=-11.658226224054232 stress="0.014141468032518973 -1.6537142460557545e-08 3.577948772232399e-09 -1.6537142460557545e-08 0.014213162210762676 1.1470942781736384e-08 3.577948772232399e-09 1.1470942781736384e-08 0.008373279460221749" pbc="T T T"
H        1.40307756       0.81006721       5.00000000        3       1.00000000       0.00000000       0.00000000       0.00000000       0.00000000       0.00000000       0.00000000
H        4.20923268       0.81006721       5.00000000        3       1.00000000       0.00000000       0.00000000       0.00000000       0.00000000       0.00000000       0.00000000
H        0.00000000       3.24026883       5.00000000        3       1.00000000       0.00000000       0.00000000       0.00000000       0.00000000       0.00000000       0.00000000
H        2.80615512       3.24026883       5.00000000        3       1.00000000       0.00000000       0.00000000       0.00000000       0.00000000       0.00000000       0.00000000
H        0.00000000       1.62013441       7.29121606        2       1.00000000       0.00000000       0.00000000       0.00000000       0.00000000       0.00000000       0.00000000
H        2.80615512       1.62013441       7.29121606        2       1.00000000       0.00000000       0.00000000       0.00000000       0.00000000       0.00000000       0.00000000
H        1.40307756       4.05033604       7.29121606        2       1.00000000       0.00000000       0.00000000       0.00000000       0.00000000       0.00000000       0.00000000
H        4.20923268       4.05033604       7.29121606        2       1.00000000       0.00000000       0.00000000       0.00000000       0.00000000       0.00000000       0.00000000
H        0.00000000       0.00000000       9.58243212        1       1.00000000       0.00000000       0.00000000       0.00000000       0.00000000       0.00000000       0.00000000
H        2.80615512       0.00000000       9.58243212        1       1.00000000       0.00000000       0.00000000       0.00000000       0.00000000       0.00000000       0.00000000
H        1.40307756       2.43020162       9.58243212        1       1.00000000       0.00000000       0.00000000       0.00000000       0.00000000       0.00000000       0.00000000
H        4.20923268       2.43020162       9.58243212        1       1.00000000       0.00000000       0.00000000       0.00000000       0.00000000       0.00000000       0.00000000
H        2.80622771       1.62012027      11.81409602        0       1.00000000       0.00000065       0.00000051       0.00000003      -0.00000344       0.00000090       0.00000005
H        4.20916079       4.05032038      11.81409674        0       1.00000000      -0.00000179      -0.00000184      -0.00000002       0.00000124       0.00000121       0.00000281
H        1.40315300       4.05035437      11.81395038        0       1.00000000       0.00000097       0.00000011      -0.00000016      -0.00000041      -0.00000558       0.00000081
H        5.61223658       1.62015055      11.81394988        0       1.00000000      -0.00000005       0.00000125       0.00000057       0.00000054       0.00000165       0.00000570
H        4.21928934       2.43005085       2.76570354        0       1.00000000       0.00000039      -0.00000331      -0.00000130       0.00000009       0.00000263      -0.00000082
H        2.79609582       4.86025464       2.76570329        0       1.00000000      -0.00000245      -0.00000219      -0.00000308      -0.00000155      -0.00000178       0.00000416
18
Lattice="5.612310241546866 0.0 0.0 0.0 4.860403243099165 0.0 0.0 0.0 14.582432123328676" Properties=species:S:1:pos:R:3:tags:I:1:masses:R:1:momenta:R:3:forces:R:3 KEmax=23.26679191048647 iter=91423 volume=397.78090899293073 ns_energy=-11.658226224031385 last_walked_iter_clone=91319 energy=-11.658226224054232 stress="0.014141468032518973 -1.6537142460557545e-08 3.577948772232399e-09 -1.6537142460557545e-08 0.014213162210762676 1.1470942781736384e-08 3.577948772232399e-09 1.1470942781736384e-08 0.008373279460221749" pbc="T T T"
H        1.40307756       0.81006721       5.00000000        3       1.00000000       0.00000000       0.00000000       0.00000000       0.00000000       0.00000000       0.00000000
H        4.20923268       0.81006721       5.00000000        3       1.00000000       0.00000000       0.00000000       0.00000000       0.00000000       0.00000000       0.00000000
H        0.00000000       3.24026883       5.00000000        3       1.00000000       0.00000000       0.00000000       0.00000000       0.00000000       0.00000000       0.00000000
H        2.80615512       3.24026883       5.00000000        3       1.00000000       0.00000000       0.00000000       0.00000000       0.00000000       0.00000000       0.00000000
H        0.00000000       1.62013441       7.29121606        2       1.00000000       0.00000000       0.00000000       0.00000000       0.00000000       0.00000000       0.00000000
H        2.80615512       1.62013441       7.29121606        2       1.00000000       0.00000000       0.00000000       0.00000000       0.00000000       0.00000000       0.00000000
H        1.40307756       4.05033604       7.29121606        2       1.00000000       0.00000000       0.00000000       0.00000000       0.00000000       0.00000000       0.00000000
H        4.20923268       4.05033604       7.29121606        2       1.00000000       0.00000000       0.00000000       0.00000000       0.00000000       0.00000000       0.00000000
H        0.00000000       0.00000000       9.58243212        1       1.00000000       0.00000000       0.00000000       0.00000000       0.00000000       0.00000000       0.00000000
H        2.80615512       0.00000000       9.58243212        1       1.00000000       0.00000000       0.00000000       0.00000000       0.00000000       0.00000000       0.00000000
H        1.40307756       2.43020162       9.58243212        1       1.00000000       0.00000000       0.00000000       0.00000000       0.00000000       0.00000000       0.00000000
H        4.20923268       2.43020162       9.58243212        1       1.00000000       0.00000000       0.00000000       0.00000000       0.00000000       0.00000000       0.00000000
H        2.80622882       1.62011668      11.81409561        0       1.00000000      -0.00000394      -0.00000234       0.00000020      -0.00000344       0.00000090       0.00000005
H        4.20915928       4.05031846      11.81409755        0       1.00000000       0.00000060      -0.00000012       0.00000201       0.00000124       0.00000121       0.00000281
H        1.40315191       4.05035014      11.81394988        0       1.00000000       0.00000286       0.00000015      -0.00000071      -0.00000041      -0.00000558       0.00000081
H        5.61223459       1.62014942      11.81395082        0       1.00000000      -0.00000013      -0.00000101      -0.00000107       0.00000054       0.00000165       0.00000570
H        4.21928772       2.43005085       2.76570253        0       1.00000000       0.00000070      -0.00000011      -0.00000315       0.00000009       0.00000263      -0.00000082
H        2.79609629       4.86025365       2.76570363        0       1.00000000      -0.00000045      -0.00000085      -0.00000134      -0.00000155      -0.00000178       0.00000416
18
Lattice="5.612310241546866 0.0 0.0 0.0 4.860403243099165 0.0 0.0 0.0 14.582432123328676" Properties=species:S:1:pos:R:3:tags:I:1:masses:R:1:momenta:R:3:forces:R:3 KEmax=23.26679191048647 iter=91423 volume=397.78090899293073 ns_energy=-11.658226224032331 last_walked_iter_clone=91047 energy=-11.658226224054232 stress="0.014141468032518973 -1.6537142460557545e-08 3.577948772232399e-09 -1.6537142460557545e-08 0.014213162210762676 1.1470942781736384e-08 3.577948772232399e-09 1.1470942781736384e-08 0.008373279460221749" pbc="T T T"
H        1.40307756       0.81006721       5.00000000        3       1.00000000       0.00000000       0.00000000       0.00000000       0.00000000       0.00000000       0.00000000
H        4.20923268       0.81006721       5.00000000        3       1.00000000       0.00000000       0.00000000       0.00000000       0.00000000       0.00000000       0.00000000
H        0.00000000       3.24026883       5.00000000        3       1.00000000       0.00000000       0.00000000       0.00000000       0.00000000       0.00000000       0.00000000
H        2.80615512       3.24026883       5.00000000        3       1.00000000       0.00000000       0.00000000       0.00000000       0.00000000       0.00000000       0.00000000
H        0.00000000       1.62013441       7.29121606        2       1.00000000       0.00000000       0.00000000       0.00000000       0.00000000       0.00000000       0.00000000
H        2.80615512       1.62013441       7.29121606        2       1.00000000       0.00000000       0.00000000       0.00000000       0.00000000       0.00000000       0.00000000
H        1.40307756       4.05033604       7.29121606        2       1.00000000       0.00000000       0.00000000       0.00000000       0.00000000       0.00000000       0.00000000
H        4.20923268       4.05033604       7.29121606        2       1.00000000       0.00000000       0.00000000       0.00000000       0.00000000       0.00000000       0.00000000
H        0.00000000       0.00000000       9.58243212        1       1.00000000       0.00000000       0.00000000       0.00000000       0.00000000       0.00000000       0.00000000
H        2.80615512       0.00000000       9.58243212        1       1.00000000       0.00000000       0.00000000       0.00000000       0.00000000       0.00000000       0.00000000
H        1.40307756       2.43020162       9.58243212        1       1.00000000       0.00000000       0.00000000       0.00000000       0.00000000       0.00000000       0.00000000
H        4.20923268       2.43020162       9.58243212        1       1.00000000       0.00000000       0.00000000       0.00000000       0.00000000       0.00000000       0.00000000
H        2.80622953       1.62011781      11.81409727        0       1.00000000      -0.00000243       0.00000245       0.00000178      -0.00000344       0.00000090       0.00000005
H        4.20916013       4.05032030      11.81409600        0       1.00000000       0.00000143       0.00000062       0.00000066       0.00000124       0.00000121       0.00000281
H        1.40315280       4.05035072      11.81395064        0       1.00000000       0.00000035      -0.00000121       0.00000209      -0.00000041      -0.00000558       0.00000081
H        5.61223640       1.62014892      11.81395065        0       1.00000000       0.00000247       0.00000155       0.00000295       0.00000054       0.00000165       0.00000570
H        4.21928873       2.43005135       2.76570325        0       1.00000000       0.00000174      -0.00000045       0.00000001       0.00000009       0.00000263      -0.00000082
H        2.79609762       4.86025140       2.76570113        0       1.00000000       0.00000082      -0.00000131       0.00000247      -0.00000155      -0.00000178       0.00000416
18
Lattice="5.612310241546866 0.0 0.0 0.0 4.860403243099165 0.0 0.0 0.0 14.582432123328676" Properties=species:S:1:pos:R:3:tags:I:1:masses:R:1:momenta:R:3:forces:R:3 KEmax=23.26679191048647 iter=91423 volume=397.78090899293073 ns_energy=-11.658226224031635 last_walked_iter_clone=91376 energy=-11.658226224054232 stress="0.014141468032518973 -1.6537142460557545e-08 3.577948772232399e-09 -1.6537142460557545e-08 0.014213162210762676 1.1470942781736384e-08 3.577948772232399e-09 1.1470942781736384e-08 0.008373279460221749" pbc="T T T"
H        1.40307756       0.81006721       5.00000000        3       1.00000000       0.00000000       0.00000000       0.00000000       0.00000000       0.00000000       0.00000000
H        4.20923268       0.81006721       5.00000000        3       1.00000000       0.00000000       0.00000000       0.00000000       0.00000000       0.00000000       0.00000000
H        0.00000000       3.24026883       5.00000000        3       1.00000000       0.00000000       0.00000000       0.00000000       0.00000000       0.00000000       0.00000000
H        2.80615512       3.24026883       5.00000000        3       1.00000000       0.00000000       0.00000000       0.00000000       0.00000000       0.00000000       0.00000000
H        0.00000000       1.62013441       7.29121606        2       1.00000000       0.00000000       0.00000000       0.00000000       0.00000000       0.00000000       0.00000000
H        2.80615512       1.62013441       7.29121606        2       1.00000000       0.00000000       0.00000000       0.00000000       0.00000000       0.00000000       0.00000000
H        1.40307756       4.05033604       7.29121606        2       1.00000000       0.00000000       0.00000000       0.00000000       0.00000000       0.00000000       0.00000000
H        4.20923268       4.05033604       7.29121606        2       1.00000000       0.00000000       0.00000000       0.00000000       0.00000000       0.00000000       0.00000000
H        0.00000000       0.00000000       9.58243212        1       1.00000000       0.00000000       0.00000000       0.00000000       0.00000000       0.00000000       0.00000000
H        2.80615512       0.00000000       9.58243212        1       1.00000000       0.00000000       0.00000000       0.00000000       0.00000000       0.00000000       0.00000000
H        1.40307756       2.43020162       9.58243212        1       1.00000000       0.00000000       0.00000000       0.00000000       0.00000000       0.00000000       0.00000000
H        4.20923268       2.43020162       9.58243212        1       1.00000000       0.00000000       0.00000000       0.00000000       0.00000000       0.00000000       0.00000000
H        2.80622750       1.62011719      11.81409878        0       1.00000000       0.00000050       0.00000099       0.00000150      -0.00000344       0.00000090       0.00000005
H        4.20915902       4.05031790      11.81409795        0       1.00000000      -0.00000062       0.00000059      -0.00000090       0.00000124       0.00000121       0.00000281
H        1.40315055       4.05035114      11.81395118        0       1.00000000      -0.00000083       0.00000059       0.00000306      -0.00000041      -0.00000558       0.00000081