18
Lattice="5.612310241546866 0.0 0.0 0.0 4.860403243099165 0.0 0.0 0.0 14.582432123328676" Properties=species:S:1:pos:R:3:tags:I:1:masses:R:1:momenta:R:3 KEmax=23.26679191048647 iter=99 volume=397.78090899293073 ns_energy=1523.3234928193717 last_walked_iter_clone=61 ns_P=0.0 config_n_global=99 ns_KE=19.33370200252443 pbc="T T T"
H        1.40307756       0.81006721       5.00000000        3       1.00000000       0.00000000       0.00000000       0.00000000
H        4.20923268       0.81006721       5.00000000        3       1.00000000       0.00000000       0.00000000       0.00000000
H        0.00000000       3.24026883       5.00000000        3       1.00000000       0.00000000       0.00000000       0.00000000
H        2.80615512       3.24026883       5.00000000        3       1.00000000       0.00000000       0.00000000       0.00000000
H        0.00000000       1.62013441       7.29121606        2       1.00000000       0.00000000       0.00000000       0.00000000
H        2.80615512       1.62013441       7.29121606        2       1.00000000       0.00000000       0.00000000       0.00000000
H        1.40307756       4.05033604       7.29121606        2       1.00000000       0.00000000       0.00000000       0.00000000
H        4.20923268       4.05033604       7.29121606        2       1.00000000       0.00000000       0.00000000       0.00000000
H        0.00000000       0.00000000       9.58243212        1       1.00000000       0.00000000       0.00000000       0.00000000
H        2.80615512       0.00000000       9.58243212        1       1.00000000       0.00000000       0.00000000       0.00000000
H        1.40307756       2.43020162       9.58243212        1       1.00000000       0.00000000       0.00000000       0.00000000
H        4.20923268       2.43020162       9.58243212        1       1.00000000       0.00000000       0.00000000       0.00000000
H        1.03902571       1.72213589      11.80045713        0       1.00000000      -0.33790728      -0.85893378      -2.01225308
H        4.51678459       3.17398615      12.00658486        0       1.00000000      -1.97175692       1.27600477       0.11617119
H        2.90791039       1.93392659       0.24767626        0       1.00000000       2.48696266      -2.05202462       0.59159529
H        4.79668094       4.64968029       2.79673086        0       1.00000000      -2.26498238      -0.64844634      -0.12519316
H        4.35889787       2.92055124      13.22732973        0       1.00000000       0.65607956      -0.56622400       0.35440015
H        0.74549820       3.80984048      13.14787914        0       1.00000000       2.78064744       0.20951318      -1.80891233
18
Lattice="5.612310241546866 0.0 0.0 0.0 4.860403243099165 0.0 0.0 0.0 14.582432123328676" Properties=species:S:1:pos:R:3:tags:I:1:masses:R:1:momenta:R:3 KEmax=23.26679191048647 iter=199 volume=397.78090899293073 ns_energy=77.87167450545195 last_walked_iter_clone=0 ns_P=0.0 config_n_global=199 ns_KE=21.113216898286705 pbc="T T T"
H        1.40307756       0.81006721       5.00000000        3       1.00000000       0.00000000       0.00000000       0.00000000
H        4.20923268       0.81006721       5.00000000        3       1.00000000       0.00000000       0.00000000       0.00000000
H        0.00000000       3.24026883       5.00000000        3       1.00000000       0.00000000       0.00000000       0.00000000
H        2.80615512       3.24026883       5.00000000        3       1.00000000       0.00000000       0.00000000       0.00000000
H        0.00000000       1.62013441       7.29121606        2       1.00000000       0.00000000       0.00000000       0.00000000
H        2.80615512       1.62013441       7.29121606        2       1.00000000       0.00000000       0.00000000       0.00000000
H        1.40307756       4.05033604       7.29121606        2       1.00000000       0.00000000       0.00000000       0.00000000
H        4.20923268       4.05033604       7.29121606        2       1.00000000       0.00000000       0.00000000       0.00000000
H        0.00000000       0.00000000       9.58243212        1       1.00000000       0.00000000       0.00000000       0.00000000
H        2.80615512       0.00000000       9.58243212        1       1.00000000       0.00000000       0.00000000       0.00000000
H        1.40307756       2.43020162       9.58243212        1       1.00000000       0.00000000       0.00000000       0.00000000
H        4.20923268       2.43020162       9.58243212        1       1.00000000       0.00000000       0.00000000       0.00000000
H        1.53304292       2.59397792       1.55522745        0       1.00000000      -1.34886739      -0.20970190      -0.01777010
H        2.21297081       3.99579070       2.41432629        0       1.00000000      -0.16646827      -1.27610385       2.67789909
H        3.54185724       3.69206587      12.58883442        0       1.00000000      -0.47790304      -1.26675970       0.10536199
H        0.85611544       0.17790177      13.95817230        0       1.00000000      -3.45857257      -1.79431613       2.26473241
H        5.14120600       1.45662993      12.31477522        0       1.00000000      -1.29286105       0.86353071      -1.89187863
H        0.25073675       2.48059558      13.42116046        0       1.00000000       1.13976252      -0.23583255      -1.42473445
18
Lattice="5.612310241546866 0.0 0.0 0.0 4.860403243099165 0.0 0.0 0.0 14.582432123328676" Properties=species:S:1:pos:R:3:tags:I:1:masses:R:1:momenta:R:3 KEmax=23.26679191048647 iter=299 volume=397.78090899293073 ns_energy=22.004127723084196 last_walked_iter_clone=49 ns_P=0.0 config_n_global=299 ns_KE=21.855739675545074 pbc="T T T"
H        1.40307756       0.81006721       5.00000000        3       1.00000000       0.00000000       0.00000000       0.00000000
H        4.20923268       0.81006721       5.00000000        3       1.00000000       0.00000000       0.00000000       0.00000000
H        0.00000000       3.24026883       5.00000000        3       1.00000000       0.00000000       0.00000000       0.00000000
H        2.80615512       3.24026883       5.00000000        3       1.00000000       0.00000000       0.00000000       0.00000000
H        0.00000000       1.62013441       7.29121606        2       1.00000000       0.00000000       0.00000000       0.00000000
H        2.80615512       1.62013441       7.29121606        2       1.00000000       0.00000000       0.00000000       0.00000000
H        1.40307756       4.05033604       7.29121606        2       1.00000000       0.00000000       0.00000000       0.00000000
H        4.20923268       4.05033604       7.29121606        2       1.00000000       0.00000000       0.00000000       0.00000000
H        0.00000000       0.00000000       9.58243212        1       1.00000000       0.00000000       0.00000000       0.00000000
H        2.80615512       0.00000000       9.58243212        1       1.00000000       0.00000000       0.00000000       0.00000000
H        1.40307756       2.43020162       9.58243212        1       1.00000000       0.00000000       0.00000000       0.00000000
H        4.20923268       2.43020162       9.58243212        1       1.00000000       0.00000000       0.00000000       0.00000000
H        1.20753743       2.30263455       2.84269581        0       1.00000000      -3.03873321       0.58286426      -1.27661180
H        4.68029636       3.54004770      13.20726416        0       1.00000000      -0.81833800       0.46792030      -0.15639356
H        3.54115318       0.02250171       0.78168637        0       1.00000000       2.83157837      -1.79268894      -0.60821008
H        0.05195274       1.20727488      13.11318126        0       1.00000000       3.05185181       0.58502582       0.17723690
H        3.86690877       0.36511062      11.78009053        0       1.00000000      -1.43917756      -0.00247265      -0.21148814
H        4.78294726       3.05875567       0.46531235        0       1.00000000       2.28436707      -1.69972861      -0.28756483
18
Lattice="5.612310241546866 0.0 0.0 0.0 4.860403243099165 0.0 0.0 0.0 14.582432123328676" Properties=species:S:1:pos:R:3:tags:I:1:masses:R:1:momenta:R:3 KEmax=23.26679191048647 iter=399 volume=397.78090899293073 ns_energy=15.315043895890467 last_walked_iter_clone=323 ns_P=0.0 config_n_global=399 ns_KE=20.833567281466976 pbc="T T T"
H        1.40307756       0.81006721       5.00000000        3       1.00000000       0.00000000       0.00000000       0.00000000
H        4.20923268       0.81006721       5.00000000        3       1.00000000       0.00000000       0.00000000       0.00000000
H        0.00000000       3.24026883       5.00000000        3       1.00000000       0.00000000       0.00000000       0.00000000
H        2.80615512       3.24026883       5.00000000        3       1.00000000       0.00000000       0.00000000       0.00000000
H        0.00000000       1.62013441       7.29121606        2       1.00000000       0.00000000       0.00000000       0.00000000
H        2.80615512       1.62013441       7.29121606        2       1.00000000       0.00000000       0.00000000       0.00000000
H        1.40307756       4.05033604       7.29121606        2       1.00000000       0.00000000       0.00000000       0.00000000
H        4.20923268       4.05033604       7.29121606        2       1.00000000       0.00000000       0.00000000       0.00000000
H        0.00000000       0.00000000       9.58243212        1       1.00000000       0.00000000       0.00000000       0.00000000
H        2.80615512       0.00000000       9.58243212        1       1.00000000       0.00000000       0.00000000       0.00000000
H        1.40307756       2.43020162       9.58243212        1       1.00000000       0.00000000       0.00000000       0.00000000
H        4.20923268       2.43020162       9.58243212        1       1.00000000       0.00000000       0.00000000       0.00000000
H        3.04610232       4.66302666       2.12390228        0       1.00000000       1.20647534       3.15528371       0.39441075
H        5.11938051       2.93210168       3.03089120        0       1.00000000      -1.60068482      -3.42949387      -0.14699340
H        0.04844281       2.78095594      12.05399996        0       1.00000000       0.64507434       0.08227562      -1.50539667
H        2.65238240       0.77864939      12.40830435        0       1.00000000       0.31455585      -1.89198043      -1.10402213
H        2.96655984       2.25660658       1.35650112        0       1.00000000       0.58682689      -0.15896864       0.75132191
H        2.57024646       4.26775940      14.06107123        0       1.00000000       0.68839305       0.33039084       2.57900670
18
Lattice="5.612310241546866 0.0 0.0 0.0 4.860403243099165 0.0 0.0 0.0 14.582432123328676" Properties=species:S:1:pos:R:3:tags:I:1:masses:R:1:momenta:R:3 KEmax=23.26679191048647 iter=499 volume=397.78090899293073 ns_energy=13.236491722571898 last_walked_iter_clone=454 ns_P=0.0 config_n_global=499 ns_KE=19.738708019180894 pbc="T T T"
H        1.40307756       0.81006721       5.00000000        3       1.00000000       0.00000000       0.00000000       0.00000000
H        4.20923268       0.81006721       5.00000000        3       1.00000000       0.00000000       0.00000000       0.00000000
H        0.00000000       3.24026883       5.00000000        3       1.00000000       0.00000000       0.00000000       0.00000000
H        2.80615512       3.24026883       5.00000000        3       1.00000000       0.00000000       0.00000000       0.00000000
H        0.00000000       1.62013441       7.29121606        2       1.00000000       0.00000000       0.00000000       0.00000000
H        2.80615512       1.62013441       7.29121606        2       1.00000000       0.00000000       0.00000000       0.00000000
H        1.40307756       4.05033604       7.29121606        2       1.00000000       0.00000000       0.00000000       0.00000000
H        4.20923268       4.05033604       7.29121606        2       1.00000000       0.00000000       0.00000000       0.00000000
H        0.00000000       0.00000000       9.58243212        1       1.00000000       0.00000000       0.00000000       0.00000000
H        2.80615512       0.00000000       9.58243212        1       1.00000000       0.00000000       0.00000000       0.00000000
H        1.40307756       2.43020162       9.58243212        1       1.00000000       0.00000000       0.00000000       0.00000000
H        4.20923268       2.43020162       9.58243212        1       1.00000000       0.00000000       0.00000000       0.00000000
H        1.87469935       1.36182944       3.04433136        0       1.00000000       2.79241456      -0.31078865      -2.41607015
H        4.98729683       2.92632852      12.18118441        0       1.00000000      -0.57235074      -1.06161674       1.67671626
H        2.97464695       1.70182638       0.84374300        0       1.00000000      -1.53685339      -1.55693065      -0.40211539
H       -0.07218057       4.97049329       1.00571694        0       1.00000000      -1.54190399       2.35720020      -1.49371964
H        1.39017620       0.95494190      11.66907333        0       1.00000000      -0.92757421       0.09689255       0.04030531
H        2.74172325       4.29249942      12.49899989        0       1.00000000       0.66825967       2.04955508       0.92113990
18
Lattice="5.612310241546866 0.0 0.0 0.0 4.860403243099165 0.0 0.0 0.0 14.582432123328676" Properties=species:S:1:pos:R:3:tags:I:1:masses:R:1:momenta:R:3 KEmax=23.26679191048647 iter=599 volume=397.78090899293073 ns_energy=11.786179551096646 last_walked_iter_clone=490 ns_P=0.0 config_n_global=599 ns_KE=14.29802260958916 pbc="T T T"
H        1.40307756       0.81006721       5.00000000        3       1.00000000       0.00000000       0.00000000       0.00000000
H        4.20923268       0.81006721       5.00000000        3       1.00000000       0.00000000       0.00000000       0.00000000
H        0.00000000       3.24026883       5.00000000        3       1.00000000       0.00000000       0.00000000       0.00000000
H        2.80615512       3.24026883       5.00000000        3       1.00000000       0.00000000       0.00000000       0.00000000
H        0.00000000       1.62013441       7.29121606        2       1.00000000       0.00000000       0.00000000       0.00000000
H        2.80615512       1.62013441       7.29121606        2       1.00000000       0.00000000       0.00000000       0.00000000
H        1.40307756       4.05033604       7.29121606        2       1.00000000       0.00000000       0.00000000       0.00000000
H        4.20923268       4.05033604       7.29121606        2       1.00000000       0.00000000       0.00000000       0.00000000
H        0.00000000       0.00000000       9.58243212        1       1.00000000       0.00000000       0.00000000       0.00000000
H        2.80615512       0.00000000       9.58243212        1       1.00000000       0.00000000       0.00000000       0.00000000
H        1.40307756       2.43020162       9.58243212        1       1.00000000       0.00000000       0.00000000       0.00000000
H        4.20923268       2.43020162       9.58243212        1       1.00000000       0.00000000       0.00000000       0.00000000
H        3.88843347       1.07998726      14.31215237        0       1.00000000      -0.41313368       1.89710706       1.47683081
H        0.88563883       2.51496020       1.49367823        0       1.00000000      -0.30621737      -0.74352679       0.06582042
H        3.94775585       3.59158218      -0.12921621        0       1.00000000       2.34507423       0.79796624      -1.10204115
H        4.75456370       1.02233472      11.67363783        0       1.00000000      -0.16219289      -2.32688391      -0.16733021
H        5.77154370       3.77499567      12.31761401        0       1.00000000       1.76699455       1.17397573      -0.00368864
H        2.03246596       2.09938887       3.00633699        0       1.00000000       1.90849937      -0.14663640       1.00533615
18
Lattice="5.612310241546866 0.0 0.0 0.0 4.860403243099165 0.0 0.0 0.0 14.582432123328676" Properties=species:S:1:pos:R:3:tags:I:1:masses:R:1:momenta:R:3 KEmax=23.26679191048647 iter=699 volume=397.78090899293073 ns_energy=10.479463443418087 last_walked_iter_clone=638 ns_P=0.0 config_n_global=699 ns_KE=17.49228143848332 pbc="T T T"
H        1.40307756       0.81006721       5.00000000        3       1.00000000       0.00000000       0.00000000       0.00000000
H        4.20923268       0.81006721       5.00000000        3       1.00000000       0.00000000       0.00000000       0.00000000
H        0.00000000       3.24026883       5.00000000        3       1.00000000       0.00000000       0.00000000       0.00000000
H        2.80615512       3.24026883       5.00000000        3       1.00000000       0.00000000       0.00000000       0.00000000
H        0.00000000       1.62013441       7.29121606        2       1.00000000       0.00000000       0.00000000       0.00000000
H        2.80615512       1.62013441       7.29121606        2       1.00000000       0.00000000       0.00000000       0.00000000
H        1.40307756       4.05033604       7.29121606        2       1.00000000       0.00000000       0.00000000       0.00000000
H        4.20923268       4.05033604       7.29121606        2       1.00000000       0.00000000       0.00000000       0.00000000
H        0.00000000       0.00000000       9.58243212        1       1.00000000       0.00000000       0.00000000       0.00000000
H        2.80615512       0.00000000       9.58243212        1       1.00000000       0.00000000       0.00000000       0.00000000
H        1.40307756       2.43020162       9.58243212        1       1.00000000       0.00000000       0.00000000       0.00000000
H        4.20923268       2.43020162       9.58243212        1       1.00000000       0.00000000       0.00000000       0.00000000
H        4.40564456       2.66736926      12.92657634        0       1.00000000       0.36991256       1.83815520       0.75834103
H        2.91886448       1.36040551       2.76879411        0       1.00000000       1.68765045       1.48700589       1.48168024
H        1.49139789       1.76202423      13.78145681        0       1.00000000      -0.03137221      -1.35389471       1.47646817
H        2.81319837       5.17273313      -0.13274508        0       1.00000000       0.73112249       0.79439166      -1.78639663
H        0.77381709       0.47045380       2.25661192        0       1.00000000      -1.19779544      -0.71630158       2.16068671
H        4.62974813       2.03169470       1.05738402        0       1.00000000       0.43089492      -0.20764501      -2.90226889
18
Lattice="5.612310241546866 0.0 0.0 0.0 4.860403243099165 0.0 0.0 0.0 14.582432123328676" Properties=species:S:1:pos:R:3:tags:I:1:masses:R:1:momenta:R:3 KEmax=23.26679191048647 iter=799 volume=397.78090899293073 ns_energy=9.417647627912771 last_walked_iter_clone=716 ns_P=0.0 config_n_global=799 ns_KE=18.181375799726514 pbc="T T T"
H        1.40307756       0.81006721       5.00000000        3       1.00000000       0.00000000       0.00000000       0.00000000
H        4.20923268       0.81006721       5.00000000        3       1.00000000       0.00000000       0.00000000       0.00000000
H        0.00000000       3.24026883       5.00000000        3       1.00000000       0.00000000       0.00000000       0.00000000
H        2.80615512       3.24026883       5.00000000        3       1.00000000       0.00000000       0.00000000       0.00000000
H        0.00000000       1.62013441       7.29121606        2       1.00000000       0.00000000       0.00000000       0.00000000
H        2.80615512       1.62013441       7.29121606        2       1.00000000       0.00000000       0.00000000       0.00000000
H        1.40307756       4.05033604       7.29121606        2       1.00000000       0.00000000       0.00000000       0.00000000
H        4.20923268       4.05033604       7.29121606        2       1.00000000       0.00000000       0.00000000       0.00000000
H        0.00000000       0.00000000       9.58243212        1       1.00000000       0.00000000       0.00000000       0.00000000
H        2.80615512       0.00000000       9.58243212        1       1.00000000       0.00000000       0.00000000       0.00000000
H        1.40307756       2.43020162       9.58243212        1       1.00000000       0.00000000       0.00000000       0.00000000
H        4.20923268       2.43020162       9.58243212        1       1.00000000       0.00000000       0.00000000       0.00000000
H        3.98370506       5.33580685       1.04979240        0       1.00000000       1.00050356       2.22493236       0.00360562
H        0.34719993       3.86107256      11.90012374        0       1.00000000      -1.54638468       2.35713272      -0.63526193
H        1.94274615       3.07492650      13.77148385        0       1.00000000       0.02251263       0.87947928       2.41523026
H        0.23145103       4.39313471      14.52734907        0       1.00000000      -1.38700151       0.21985749       1.51358796
H        0.97389089       1.67876383       1.95581886        0       1.00000000       0.82621078      -0.52393533       0.45067505
H       -0.19255726       4.05271569       2.46757709        0       1.00000000       0.28252590      -0.83064347       3.04303343
18
Lattice="5.612310241546866 0.0 0.0 0.0 4.860403243099165 0.0 0.0 0.0 14.582432123328676" Properties=species:S:1:pos:R:3:tags:I:1:masses:R:1:momenta:R:3 KEmax=23.26679191048647 iter=899 volume=397.78090899293073 ns_energy=8.245467229290877 last_walked_iter_clone=708 ns_P=0.0 config_n_global=899 ns_KE=17.89308458107222 pbc="T T T"
H        1.40307756       0.81006721       5.00000000        3       1.00000000       0.00000000       0.00000000       0.00000000
H        4.20923268       0.81006721       5.00000000        3       1.00000000       0.00000000       0.00000000       0.00000000
H        0.00000000       3.24026883       5.00000000        3       1.00000000       0.00000000       0.00000000       0.00000000
H        2.80615512       3.24026883       5.00000000        3       1.00000000       0.00000000       0.00000000       0.00000000
H        0.00000000       1.62013441       7.29121606        2       1.00000000       0.00000000       0.00000000       0.00000000
H        2.80615512       1.62013441       7.29121606        2       1.00000000       0.00000000       0.00000000       0.00000000
H        1.40307756       4.05033604       7.29121606        2       1.00000000       0.00000000       0.00000000       0.00000000
H        4.20923268       4.05033604       7.29121606        2       1.00000000       0.00000000       0.00000000       0.00000000
H        0.00000000       0.00000000       9.58243212        1       1.00000000       0.00000000       0.00000000       0.00000000
H        2.80615512       0.00000000       9.58243212        1       1.00000000       0.00000000       0.00000000       0.00000000
H        1.40307756       2.43020162       9.58243212        1       1.00000000       0.00000000       0.00000000       0.00000000
H        4.20923268       2.43020162       9.58243212        1       1.00000000       0.00000000       0.00000000       0.00000000
H        5.12607152       0.09763463       0.56967707        0       1.00000000       0.34972557      -0.60184134      -0.68062083
H        0.42438392       1.19723824      11.88028598        0       1.00000000       0.17398886      -0.54965948       1.17299394
H        0.65130794       2.92313373       2.82055884        0       1.00000000      -0.25984419       1.61833139       0.00135771
H        3.45195583       2.49258486       2.56564585        0       1.00000000       2.38127742      -2.59145205       1.24732635
H        2.06659631       1.79875768      14.17502516        0       1.00000000       0.86707538      -3.18798849       0.09412702
H        4.26129121       4.17231743      12.50252022        0       1.00000000      -0.41142991       2.16707653      -0.84391902
18
Lattice="5.612310241546866 0.0 0.0 0.0 4.860403243099165 0.0 0.0 0.0 14.582432123328676" Properties=species:S:1:pos:R:3:tags:I:1:masses:R:1:momenta:R:3 KEmax=23.26679191048647 iter=999 volume=397.78090899293073 ns_energy=7.284613444368955 last_walked_iter_clone=850 ns_P=0.0 config_n_global=999 ns_KE=16.56498475556636 pbc="T T T"
H        1.40307756       0.81006721       5.00000000        3       1.00000000       0.00000000       0.00000000       0.00000000
H        4.20923268       0.81006721       5.00000000        3       1.00000000       0.00000000       0.00000000       0.00000000
H        0.00000000       3.24026883       5.00000000        3       1.00000000       0.00000000       0.00000000       0.00000000
H        2.80615512       3.24026883       5.00000000        3       1.00000000       0.00000000       0.00000000       0.00000000
H        0.00000000       1.62013441       7.29121606        2       1.00000000       0.00000000       0.00000000       0.00000000
H        2.80615512       1.62013441       7.29121606        2       1.00000000       0.00000000       0.00000000       0.00000000
H        1.40307756       4.05033604       7.29121606        2       1.00000000       0.00000000       0.00000000       0.00000000
H        4.20923268       4.05033604       7.29121606        2       1.00000000       0.00000000       0.00000000       0.00000000
H        0.00000000       0.00000000       9.58243212        1       1.00000000       0.00000000       0.00000000       0.00000000
H        2.80615512       0.00000000       9.58243212        1       1.00000000       0.00000000       0.00000000       0.00000000
H        1.40307756       2.43020162       9.58243212        1       1.00000000       0.00000000       0.00000000       0.00000000
H        4.20923268       2.43020162       9.58243212        1       1.00000000       0.00000000       0.00000000       0.00000000
H        4.97688142       2.72224002       2.33823952        0       1.00000000      -0.86147949      -1.12698958       0.67309740
H        1.54175961       0.78975894      13.93743089        0       1.00000000      -1.07493303      -2.81034601       2.06954045
H        2.97027332       1.45115401      11.46438902        0       1.00000000       1.36227705       0.34437838      -0.24573240
H        2.61708018       1.49372263       2.64736629        0       1.00000000      -0.50996629       0.02583935      -0.05909077
H        4.38394234       1.56271854      14.27439986        0       1.00000000       2.50500907       0.13588797       1.16238421
H        4.51057296       3.89707042      14.20034053        0       1.00000000       2.36082016      -0.84009172      -1.05129917
18
Lattice="5.612310241546866 0.0 0.0 0.0 4.860403243099165 0.0 0.0 0.0 14.582432123328676" Properties=species:S:1:pos:R:3:tags:I:1:masses:R:1:momenta:R:3 KEmax=23.26679191048647 iter=1099 volume=397.78090899293073 ns_energy=6.246176501030481 last_walked_iter_clone=947 ns_P=0.0 config_n_global=1099 ns_KE=13.954065924834591 pbc="T T T"
H        1.40307756       0.81006721       5.00000000        3       1.00000000       0.00000000       0.00000000       0.00000000
H        4.20923268       0.81006721       5.00000000        3       1.00000000       0.00000000       0.00000000       0.00000000
H        0.00000000       3.24026883       5.00000000        3       1.00000000       0.00000000       0.00000000       0.00000000
H        2.80615512       3.24026883       5.00000000        3       1.00000000       0.00000000       0.00000000       0.00000000
H        0.00000000       1.62013441       7.29121606        2       1.00000000       0.00000000       0.00000000       0.00000000
H        2.80615512       1.62013441       7.29121606        2       1.00000000       0.00000000       0.00000000       0.00000000
H        1.40307756       4.05033604       7.29121606        2       1.00000000       0.00000000       0.00000000       0.00000000
H        4.20923268       4.05033604       7.29121606        2       1.00000000       0.00000000       0.00000000       0.00000000
H        0.00000000       0.00000000       9.58243212        1       1.00000000       0.00000000       0.00000000       0.00000000
H        2.80615512       0.00000000       9.58243212        1       1.00000000       0.00000000       0.00000000       0.00000000
H        1.40307756       2.43020162       9.58243212        1       1.00000000       0.00000000       0.00000000       0.00000000
H        4.20923268       2.43020162       9.58243212        1       1.00000000       0.00000000       0.00000000       0.00000000
H        3.36332558       1.41876663       2.40380645        0       1.00000000      -0.25316910       1.06495614       0.47574255
H        1.03840410       0.49454796       1.09884894        0       1.00000000       0.50984519      -0.13661116      -0.38322116
H        0.62403394       4.27534929      11.99928509        0       1.00000000      -2.19868532       0.88478375      -0.16425306
H        0.64112381       1.58153021      13.36238614        0       1.00000000       0.69681002       1.66832886       1.44262445
H        2.13197172       2.15966662      11.55498613        0       1.00000000      -2.97330028      -2.00801493       0.22715049
H        0.77730536       2.43957926       2.98927535        0       1.00000000      -0.33367753      -1.34721841       0.46202643
18
Lattice="5.612310241546866 0.0 0.0 0.0 4.860403243099165 0.0 0.0 0.0 14.582432123328676" Properties=species:S:1:pos:R:3:tags:I:1:masses:R:1:momenta:R:3 KEmax=23.26679191048647 iter=1199 volume=397.78090899293073 ns_energy=5.297277927201377 last_walked_iter_clone=1054 ns_P=0.0 config_n_global=1199 ns_KE=13.748002806118272 pbc="T T T"