18
Lattice="5.612310241546866 0.0 0.0 0.0 4.860403243099165 0.0 0.0 0.0 14.582432123328676" Properties=species:S:1:pos:R:3:tags:I:1:masses:R:1:momenta:R:3:forces:R:3 KEmax=23.26679191048647 iter=119999 volume=397.78090899293073 ns_energy=-11.658226224070805 last_walked_iter_clone=118654 energy=-11.658222679846 stress="0.014141434054213869 2.473846718894951e-08 -6.272998553977082e-09 2.473846718894951e-08 0.014213051780600094 -1.715662232053429e-08 -6.272998553977082e-09 -1.715662232053429e-08 0.008373313765045763" pbc="T T T"
H        1.40307756       0.81006721       5.00000000        3       1.00000000       0.00000000       0.00000000       0.00000000       0.00000000       0.00000000       0.00000000
H        4.20923268       0.81006721       5.00000000        3       1.00000000       0.00000000       0.00000000       0.00000000       0.00000000       0.00000000       0.00000000
H        0.00000000       3.24026883       5.00000000        3       1.00000000       0.00000000       0.00000000       0.00000000       0.00000000       0.00000000       0.00000000
H        2.80615512       3.24026883       5.00000000        3       1.00000000       0.00000000       0.00000000       0.00000000       0.00000000       0.00000000       0.00000000
H        0.00000000       1.62013441       7.29121606        2       1.00000000       0.00000000       0.00000000       0.00000000       0.00000000       0.00000000       0.00000000
H        2.80615512       1.62013441       7.29121606        2       1.00000000       0.00000000       0.00000000       0.00000000       0.00000000       0.00000000       0.00000000
H        1.40307756       4.05033604       7.29121606        2       1.00000000       0.00000000       0.00000000       0.00000000       0.00000000       0.00000000       0.00000000
H        4.20923268       4.05033604       7.29121606        2       1.00000000       0.00000000       0.00000000       0.00000000       0.00000000       0.00000000       0.00000000
H        0.00000000       0.00000000       9.58243212        1       1.00000000       0.00000000       0.00000000       0.00000000       0.00000000       0.00000000       0.00000000
H        2.80615512       0.00000000       9.58243212        1       1.00000000       0.00000000       0.00000000       0.00000000       0.00000000       0.00000000       0.00000000
H        1.40307756       2.43020162       9.58243212        1       1.00000000       0.00000000       0.00000000       0.00000000       0.00000000       0.00000000       0.00000000
H        4.20923268       2.43020162       9.58243212        1       1.00000000       0.00000000       0.00000000       0.00000000       0.00000000       0.00000000       0.00000000
H        2.80622923       1.62011772      11.81409733        0       1.00000000      -0.00000109      -0.00000078       0.00000049       0.00076361       0.00317434       0.00000084
H        4.20915999       4.05031979      11.81409674        0       1.00000000      -0.00000028      -0.00000028       0.00000087       0.00079804      -0.00313559       0.00000224
H        1.40315260       4.05035130      11.81395058        0       1.00000000      -0.00000016       0.00000055      -0.00000068      -0.00079657      -0.00317680      -0.00000362
H        5.61223724       1.62014963      11.81395115        0       1.00000000      -0.00000087      -0.00000006      -0.00000001      -0.00076297       0.00314047      -0.00000149
H        4.21929041       2.43005157       2.76570330        0       1.00000000      -0.00000059       0.00000032      -0.00000060       0.00000023      -0.00000698       0.00000256
H        2.79609831       4.86025354       2.76570421        0       1.00000000      -0.00000031       0.00000058       0.00000099      -0.00000044       0.00000698      -0.00000438
18
Lattice="5.612310241546866 0.0 0.0 0.0 4.860403243099165 0.0 0.0 0.0 14.582432123328676" Properties=species:S:1:pos:R:3:tags:I:1:masses:R:1:momenta:R:3:forces:R:3 KEmax=23.26679191048647 iter=119999 volume=397.78090899293073 ns_energy=-11.658226224070773 last_walked_iter_clone=117561 energy=-11.658222679846 stress="0.014141434054213869 2.473846718894951e-08 -6.272998553977082e-09 2.473846718894951e-08 0.014213051780600094 -1.715662232053429e-08 -6.272998553977082e-09 -1.715662232053429e-08 0.008373313765045763" pbc="T T T"
H        1.40307756       0.81006721       5.00000000        3       1.00000000       0.00000000       0.00000000       0.00000000       0.00000000       0.00000000       0.00000000
H        4.20923268       0.81006721       5.00000000        3       1.00000000       0.00000000       0.00000000       0.00000000       0.00000000       0.00000000       0.00000000
H        0.00000000       3.24026883       5.00000000        3       1.00000000       0.00000000       0.00000000       0.00000000       0.00000000       0.00000000       0.00000000
H        2.80615512       3.24026883       5.00000000        3       1.00000000       0.00000000       0.00000000       0.00000000       0.00000000       0.00000000       0.00000000
H        0.00000000       1.62013441       7.29121606        2       1.00000000       0.00000000       0.00000000       0.00000000       0.00000000       0.00000000       0.00000000
H        2.80615512       1.62013441       7.29121606        2       1.00000000       0.00000000       0.00000000       0.00000000       0.00000000       0.00000000       0.00000000
H        1.40307756       4.05033604       7.29121606        2       1.00000000       0.00000000       0.00000000       0.00000000       0.00000000       0.00000000       0.00000000
H        4.20923268       4.05033604       7.29121606        2       1.00000000       0.00000000       0.00000000       0.00000000       0.00000000       0.00000000       0.00000000
H        0.00000000       0.00000000       9.58243212        1       1.00000000       0.00000000       0.00000000       0.00000000       0.00000000       0.00000000       0.00000000
H        2.80615512       0.00000000       9.58243212        1       1.00000000       0.00000000       0.00000000       0.00000000       0.00000000       0.00000000       0.00000000
H        1.40307756       2.43020162       9.58243212        1       1.00000000       0.00000000       0.00000000       0.00000000       0.00000000       0.00000000       0.00000000
H        4.20923268       2.43020162       9.58243212        1       1.00000000       0.00000000       0.00000000       0.00000000       0.00000000       0.00000000       0.00000000
H        2.80622815       1.62011783      11.81409722        0       1.00000000      -0.00000073      -0.00000021      -0.00000124       0.00076361       0.00317434       0.00000084
H        4.20915935       4.05031941      11.81409654        0       1.00000000      -0.00000003      -0.00000066      -0.00000005       0.00079804      -0.00313559       0.00000224
H        1.40315119       4.05035147      11.81395071        0       1.00000000       0.00000007       0.00000035      -0.00000005      -0.00079657      -0.00317680      -0.00000362
H        5.61223582       1.62014998      11.81395108        0       1.00000000      -0.00000144       0.00000027       0.00000001      -0.00076297       0.00314047      -0.00000149
H        4.21928937       2.43005196       2.76570339        0       1.00000000       0.00000060      -0.00000169       0.00000055       0.00000023      -0.00000698       0.00000256
H        2.79609751       4.86025353       2.76570409        0       1.00000000      -0.00000009       0.00000026      -0.00000002      -0.00000044       0.00000698      -0.00000438
18
Lattice="5.612310241546866 0.0 0.0 0.0 4.860403243099165 0.0 0.0 0.0 14.582432123328676" Properties=species:S:1:pos:R:3:tags:I:1:masses:R:1:momenta:R:3:forces:R:3 KEmax=23.26679191048647 iter=119999 volume=397.78090899293073 ns_energy=-11.658226224071198 last_walked_iter_clone=115646 energy=-11.658222679846 stress="0.014141434054213869 2.473846718894951e-08 -6.272998553977082e-09 2.473846718894951e-08 0.014213051780600094 -1.715662232053429e-08 -6.272998553977082e-09 -1.715662232053429e-08 0.008373313765045763" pbc="T T T"
H        1.40307756       0.81006721       5.00000000        3       1.00000000       0.00000000       0.00000000       0.00000000       0.00000000       0.00000000       0.00000000
H        4.20923268       0.81006721       5.00000000        3       1.00000000       0.00000000       0.00000000       0.00000000       0.00000000       0.00000000       0.00000000
H        0.00000000       3.24026883       5.00000000        3       1.00000000       0.00000000       0.00000000       0.00000000       0.00000000       0.00000000       0.00000000
H        2.80615512       3.24026883       5.00000000        3       1.00000000       0.00000000       0.00000000       0.00000000       0.00000000       0.00000000       0.00000000
H        0.00000000       1.62013441       7.29121606        2       1.00000000       0.00000000       0.00000000       0.00000000       0.00000000       0.00000000       0.00000000
H        2.80615512       1.62013441       7.29121606        2       1.00000000       0.00000000       0.00000000       0.00000000       0.00000000       0.00000000       0.00000000
H        1.40307756       4.05033604       7.29121606        2       1.00000000       0.00000000       0.00000000       0.00000000       0.00000000       0.00000000       0.00000000
H        4.20923268       4.05033604       7.29121606        2       1.00000000       0.00000000       0.00000000       0.00000000       0.00000000       0.00000000       0.00000000
H        0.00000000       0.00000000       9.58243212        1       1.00000000       0.00000000       0.00000000       0.00000000       0.00000000       0.00000000       0.00000000
H        2.80615512       0.00000000       9.58243212        1       1.00000000       0.00000000       0.00000000       0.00000000       0.00000000       0.00000000       0.00000000
H        1.40307756       2.43020162       9.58243212        1       1.00000000       0.00000000       0.00000000       0.00000000       0.00000000       0.00000000       0.00000000
H        4.20923268       2.43020162       9.58243212        1       1.00000000       0.00000000       0.00000000       0.00000000       0.00000000       0.00000000       0.00000000
H        2.80622782       1.62011838      11.81409715        0       1.00000000      -0.00000040       0.00000092       0.00000037       0.00076361       0.00317434       0.00000084
H        4.20915914       4.05032013      11.81409759        0       1.00000000       0.00000121      -0.00000003      -0.00000099       0.00079804      -0.00313559       0.00000224
H        1.40315105       4.05035203      11.81395070        0       1.00000000      -0.00000094       0.00000067      -0.00000000      -0.00079657      -0.00317680      -0.00000362
H        5.61223590       1.62015035      11.81395086        0       1.00000000      -0.00000099      -0.00000002       0.00000005      -0.00076297       0.00314047      -0.00000149
H        4.21929036       2.43005131       2.76570295        0       1.00000000       0.00000020       0.00000111      -0.00000044       0.00000023      -0.00000698       0.00000256
H        2.79609850       4.86025353       2.76570354        0       1.00000000       0.00000026      -0.00000098      -0.00000052      -0.00000044       0.00000698      -0.00000438
18
Lattice="5.612310241546866 0.0 0.0 0.0 4.860403243099165 0.0 0.0 0.0 14.582432123328676" Properties=species:S:1:pos:R:3:tags:I:1:masses:R:1:momenta:R:3:forces:R:3 KEmax=23.26679191048647 iter=119999 volume=397.78090899293073 ns_energy=-11.658226224070866 last_walked_iter_clone=118934 energy=-11.658222679846 stress="0.014141434054213869 2.473846718894951e-08 -6.272998553977082e-09 2.473846718894951e-08 0.014213051780600094 -1.715662232053429e-08 -6.272998553977082e-09 -1.715662232053429e-08 0.008373313765045763" pbc="T T T"
H        1.40307756       0.81006721       5.00000000        3       1.00000000       0.00000000       0.00000000       0.00000000       0.00000000       0.00000000       0.00000000
H        4.20923268       0.81006721       5.00000000        3       1.00000000       0.00000000       0.00000000       0.00000000       0.00000000       0.00000000       0.00000000
H        0.00000000       3.24026883       5.00000000        3       1.00000000       0.00000000       0.00000000       0.00000000       0.00000000       0.00000000       0.00000000
H        2.80615512       3.24026883       5.00000000        3       1.00000000       0.00000000       0.00000000       0.00000000       0.00000000       0.00000000       0.00000000
H        0.00000000       1.62013441       7.29121606        2       1.00000000       0.00000000       0.00000000       0.00000000       0.00000000       0.00000000       0.00000000
H        2.80615512       1.62013441       7.29121606        2       1.00000000       0.00000000       0.00000000       0.00000000       0.00000000       0.00000000       0.00000000
H        1.40307756       4.05033604       7.29121606        2       1.00000000       0.00000000       0.00000000       0.00000000       0.00000000       0.00000000       0.00000000
H        4.20923268       4.05033604       7.29121606        2       1.00000000       0.00000000       0.00000000       0.00000000       0.00000000       0.00000000       0.00000000
H        0.00000000       0.00000000       9.58243212        1       1.00000000       0.00000000       0.00000000       0.00000000       0.00000000       0.00000000       0.00000000
H        2.80615512       0.00000000       9.58243212        1       1.00000000       0.00000000       0.00000000       0.00000000       0.00000000       0.00000000       0.00000000
H        1.40307756       2.43020162       9.58243212        1       1.00000000       0.00000000       0.00000000       0.00000000       0.00000000       0.00000000       0.00000000
H        4.20923268       2.43020162       9.58243212        1       1.00000000       0.00000000       0.00000000       0.00000000       0.00000000       0.00000000       0.00000000
H        2.80622789       1.62011827      11.81409712        0       1.00000000       0.00000076      -0.00000108       0.00000019       0.00076361       0.00317434       0.00000084
H        4.20915971       4.05031997      11.81409740        0       1.00000000       0.00000017      -0.00000007      -0.00000027       0.00079804      -0.00313559       0.00000224
H        1.40315172       4.05035134      11.81395060        0       1.00000000      -0.00000026       0.00000020      -0.00000071      -0.00079657      -0.00317680      -0.00000362
H        5.61223613       1.62015019      11.81395103        0       1.00000000       0.00000079       0.00000135       0.00000060      -0.00076297       0.00314047      -0.00000149
H        4.21929013       2.43005058       2.76570377        0       1.00000000       0.00000028      -0.00000014      -0.00000055       0.00000023      -0.00000698       0.00000256
H        2.79609773       4.86025226       2.76570284        0       1.00000000      -0.00000152      -0.00000038       0.00000029      -0.00000044       0.00000698      -0.00000438
18
Lattice="5.612310241546866 0.0 0.0 0.0 4.860403243099165 0.0 0.0 0.0 14.582432123328676" Properties=species:S:1:pos:R:3:tags:I:1:masses:R:1:momenta:R:3:forces:R:3 KEmax=23.26679191048647 iter=119999 volume=397.78090899293073 ns_energy=-11.658226224070802 last_walked_iter_clone=118652 energy=-11.658222679846 stress="0.014141434054213869 2.473846718894951e-08 -6.272998553977082e-09 2.473846718894951e-08 0.014213051780600094 -1.715662232053429e-08 -6.272998553977082e-09 -1.715662232053429e-08 0.008373313765045763" pbc="T T T"
H        1.40307756       0.81006721       5.00000000        3       1.00000000       0.00000000       0.00000000       0.00000000       0.00000000       0.00000000       0.00000000
H        4.20923268       0.81006721       5.00000000        3       1.00000000       0.00000000       0.00000000       0.00000000       0.00000000       0.00000000       0.00000000
H        0.00000000       3.24026883       5.00000000        3       1.00000000       0.00000000       0.00000000       0.00000000       0.00000000       0.00000000       0.00000000
H        2.80615512       3.24026883       5.00000000        3       1.00000000       0.00000000       0.00000000       0.00000000       0.00000000       0.00000000       0.00000000
H        0.00000000       1.62013441       7.29121606        2       1.00000000       0.00000000       0.00000000       0.00000000       0.00000000       0.00000000       0.00000000
H        2.80615512       1.62013441       7.29121606        2       1.00000000       0.00000000       0.00000000       0.00000000       0.00000000       0.00000000       0.00000000
H        1.40307756       4.05033604       7.29121606        2       1.00000000       0.00000000       0.00000000       0.00000000       0.00000000       0.00000000       0.00000000
H        4.20923268       4.05033604       7.29121606        2       1.00000000       0.00000000       0.00000000       0.00000000       0.00000000       0.00000000       0.00000000
H        0.00000000       0.00000000       9.58243212        1       1.00000000       0.00000000       0.00000000       0.00000000       0.00000000       0.00000000       0.00000000
H        2.80615512       0.00000000       9.58243212        1       1.00000000       0.00000000       0.00000000       0.00000000       0.00000000       0.00000000       0.00000000
H        1.40307756       2.43020162       9.58243212        1       1.00000000       0.00000000       0.00000000       0.00000000       0.00000000       0.00000000       0.00000000
H        4.20923268       2.43020162       9.58243212        1       1.00000000       0.00000000       0.00000000       0.00000000       0.00000000       0.00000000       0.00000000
H        2.80622855       1.62011924      11.81409741        0       1.00000000      -0.00000005       0.00000032      -0.00000007       0.00076361       0.00317434       0.00000084
H        4.20915975       4.05032051      11.81409659        0       1.00000000      -0.00000084       0.00000024      -0.00000091       0.00079804      -0.00313559       0.00000224
H        1.40315160       4.05035216      11.81395042        0       1.00000000      -0.00000023      -0.00000144      -0.00000027      -0.00079657      -0.00317680      -0.00000362
H        5.61223620       1.62015057      11.81395150        0       1.00000000      -0.00000093      -0.00000108       0.00000010      -0.00076297       0.00314047      -0.00000149
H        4.21928997       2.43005226       2.76570334        0       1.00000000      -0.00000007      -0.00000009       0.00000032       0.00000023      -0.00000698       0.00000256
H        2.79609758       4.86025363       2.76570392        0       1.00000000      -0.00000025      -0.00000119      -0.00000017      -0.00000044       0.00000698      -0.00000438
18
Lattice="5.612310241546866 0.0 0.0 0.0 4.860403243099165 0.0 0.0 0.0 14.582432123328676" Properties=species:S:1:pos:R:3:tags:I:1:masses:R:1:momenta:R:3:forces:R:3 KEmax=23.26679191048647 iter=119999 volume=397.78090899293073 ns_energy=-11.65822622407081 last_walked_iter_clone=119708 energy=-11.658222679846 stress="0.014141434054213869 2.473846718894951e-08 -6.272998553977082e-09 2.473846718894951e-08 0.014213051780600094 -1.715662232053429e-08 -6.272998553977082e-09 -1.715662232053429e-08 0.008373313765045763" pbc="T T T"
H        1.40307756       0.81006721       5.00000000        3       1.00000000       0.00000000       0.00000000       0.00000000       0.00000000       0.00000000       0.00000000
H        4.20923268       0.81006721       5.00000000        3       1.00000000       0.00000000       0.00000000       0.00000000       0.00000000       0.00000000       0.00000000
H        0.00000000       3.24026883       5.00000000        3       1.00000000       0.00000000       0.00000000       0.00000000       0.00000000       0.00000000       0.00000000
H        2.80615512       3.24026883       5.00000000        3       1.00000000       0.00000000       0.00000000       0.00000000       0.00000000       0.00000000       0.00000000
H        0.00000000       1.62013441       7.29121606        2       1.00000000       0.00000000       0.00000000       0.00000000       0.00000000       0.00000000       0.00000000
H        2.80615512       1.62013441       7.29121606        2       1.00000000       0.00000000       0.00000000       0.00000000       0.00000000       0.00000000       0.00000000
H        1.40307756       4.05033604       7.29121606        2       1.00000000       0.00000000       0.00000000       0.00000000       0.00000000       0.00000000       0.00000000
H        4.20923268       4.05033604       7.29121606        2       1.00000000       0.00000000       0.00000000       0.00000000       0.00000000       0.00000000       0.00000000
H        0.00000000       0.00000000       9.58243212        1       1.00000000       0.00000000       0.00000000       0.00000000       0.00000000       0.00000000       0.00000000
H        2.80615512       0.00000000       9.58243212        1       1.00000000       0.00000000       0.00000000       0.00000000       0.00000000       0.00000000       0.00000000
H        1.40307756       2.43020162       9.58243212        1       1.00000000       0.00000000       0.00000000       0.00000000       0.00000000       0.00000000       0.00000000
H        4.20923268       2.43020162       9.58243212        1       1.00000000       0.00000000       0.00000000       0.00000000       0.00000000       0.00000000       0.00000000
H        2.80622815       1.62011783      11.81409722        0       1.00000000      -0.00000036       0.00000124      -0.00000050       0.00076361       0.00317434       0.00000084
H        4.20915935       4.05031941      11.81409654        0       1.00000000       0.00000012      -0.00000057       0.00000011       0.00079804      -0.00313559       0.00000224
H        1.40315119       4.05035147      11.81395071        0       1.00000000      -0.00000161       0.00000033      -0.00000015      -0.00079657      -0.00317680      -0.00000362
H        5.61223582       1.62014998      11.81395108        0       1.00000000      -0.00000053       0.00000060       0.00000008      -0.00076297       0.00314047      -0.00000149
H        4.21928937       2.43005196       2.76570339        0       1.00000000       0.00000091      -0.00000011      -0.00000007       0.00000023      -0.00000698       0.00000256
H        2.79609751       4.86025353       2.76570409        0       1.00000000      -0.00000060       0.00000102      -0.00000008      -0.00000044       0.00000698      -0.00000438
18
Lattice="5.612310241546866 0.0 0.0 0.0 4.860403243099165 0.0 0.0 0.0 14.582432123328676" Properties=species:S:1:pos:R:3:tags:I:1:masses:R:1:momenta:R:3:forces:R:3 KEmax=23.26679191048647 iter=119999 volume=397.78090899293073 ns_energy=-11.658226224070829 last_walked_iter_clone=117571 energy=-11.658222679846 stress="0.014141434054213869 2.473846718894951e-08 -6.272998553977082e-09 2.473846718894951e-08 0.014213051780600094 -1.715662232053429e-08 -6.272998553977082e-09 -1.715662232053429e-08 0.008373313765045763" pbc="T T T"
H        1.40307756       0.81006721       5.00000000        3       1.00000000       0.00000000       0.00000000       0.00000000       0.00000000       0.00000000       0.00000000
H        4.20923268       0.81006721       5.00000000        3       1.00000000       0.00000000       0.00000000       0.00000000       0.00000000       0.00000000       0.00000000
H        0.00000000       3.24026883       5.00000000        3       1.00000000       0.00000000       0.00000000       0.00000000       0.00000000       0.00000000       0.00000000
H        2.80615512       3.24026883       5.00000000        3       1.00000000       0.00000000       0.00000000       0.00000000       0.00000000       0.00000000       0.00000000
H        0.00000000       1.62013441       7.29121606        2       1.00000000       0.00000000       0.00000000       0.00000000       0.00000000       0.00000000       0.00000000
H        2.80615512       1.62013441       7.29121606        2       1.00000000       0.00000000       0.00000000       0.00000000       0.00000000       0.00000000       0.00000000
H        1.40307756       4.05033604       7.29121606        2       1.00000000       0.00000000       0.00000000       0.00000000       0.00000000       0.00000000       0.00000000
H        4.20923268       4.05033604       7.29121606        2       1.00000000       0.00000000       0.00000000       0.00000000       0.00000000       0.00000000       0.00000000
H        0.00000000       0.00000000       9.58243212        1       1.00000000       0.00000000       0.00000000       0.00000000       0.00000000       0.00000000       0.00000000
H        2.80615512       0.00000000       9.58243212        1       1.00000000       0.00000000       0.00000000       0.00000000       0.00000000       0.00000000       0.00000000
H        1.40307756       2.43020162       9.58243212        1       1.00000000       0.00000000       0.00000000       0.00000000       0.00000000       0.00000000       0.00000000
H        4.20923268       2.43020162       9.58243212        1       1.00000000       0.00000000       0.00000000       0.00000000       0.00000000       0.00000000       0.00000000
H        2.80622858       1.62011788      11.81409715        0       1.00000000       0.00000000      -0.00000110      -0.00000025       0.00076361       0.00317434       0.00000084
H        4.20915918       4.05031969      11.81409697        0       1.00000000       0.00000034       0.00000106      -0.00000018       0.00079804      -0.00313559       0.00000224
H        1.40315127       4.05035163      11.81395092        0       1.00000000      -0.00000017       0.00000012      -0.00000021      -0.00079657      -0.00317680      -0.00000362
H        5.61223670       1.62014995      11.81395083        0       1.00000000      -0.00000019      -0.00000150      -0.00000090      -0.00076297       0.00314047      -0.00000149
H        4.21929070       2.43005120       2.76570319        0       1.00000000      -0.00000019       0.00000009       0.00000111       0.00000023      -0.00000698       0.00000256
H        2.79609774       4.86025258       2.76570425        0       1.00000000      -0.00000029       0.00000110       0.00000066      -0.00000044       0.00000698      -0.00000438
18
Lattice="5.612310241546866 0.0 0.0 0.0 4.860403243099165 0.0 0.0 0.0 14.582432123328676" Properties=species:S:1:pos:R:3:tags:I:1:masses:R:1:momenta:R:3:forces:R:3 KEmax=23.26679191048647 iter=119999 volume=397.78090899293073 ns_energy=-11.65822622407081 last_walked_iter_clone=118173 energy=-11.658222679846 stress="0.014141434054213869 2.473846718894951e-08 -6.272998553977082e-09 2.473846718894951e-08 0.014213051780600094 -1.715662232053429e-08 -6.272998553977082e-09 -1.715662232053429e-08 0.008373313765045763" pbc="T T T"
H        1.40307756       0.81006721       5.00000000        3       1.00000000       0.00000000       0.00000000       0.00000000       0.00000000       0.00000000       0.00000000
H        4.20923268       0.81006721       5.00000000        3       1.00000000       0.00000000       0.00000000       0.00000000       0.00000000       0.00000000       0.00000000
H        0.00000000       3.24026883       5.00000000        3       1.00000000       0.00000000       0.00000000       0.00000000       0.00000000       0.00000000       0.00000000
H        2.80615512       3.24026883       5.00000000        3       1.00000000       0.00000000       0.00000000       0.00000000       0.00000000       0.00000000       0.00000000
H        0.00000000       1.62013441       7.29121606        2       1.00000000       0.00000000       0.00000000       0.00000000       0.00000000       0.00000000       0.00000000
H        2.80615512       1.62013441       7.29121606        2       1.00000000       0.00000000       0.00000000       0.00000000       0.00000000       0.00000000       0.00000000
H        1.40307756       4.05033604       7.29121606        2       1.00000000       0.00000000       0.00000000       0.00000000       0.00000000       0.00000000       0.00000000
H        4.20923268       4.05033604       7.29121606        2       1.00000000       0.00000000       0.00000000       0.00000000       0.00000000       0.00000000       0.00000000
H        0.00000000       0.00000000       9.58243212        1       1.00000000       0.00000000       0.00000000       0.00000000       0.00000000       0.00000000       0.00000000
H        2.80615512       0.00000000       9.58243212        1       1.00000000       0.00000000       0.00000000       0.00000000       0.00000000       0.00000000       0.00000000
H        1.40307756       2.43020162       9.58243212        1       1.00000000       0.00000000       0.00000000       0.00000000       0.00000000       0.00000000       0.00000000
H        4.20923268       2.43020162       9.58243212        1       1.00000000       0.00000000       0.00000000       0.00000000       0.00000000       0.00000000       0.00000000
H        2.80622844       1.62011801      11.81409712        0       1.00000000      -0.00000016       0.00000055       0.00000135       0.00076361       0.00317434       0.00000084
H        4.20915943       4.05031955      11.81409726        0       1.00000000      -0.00000013       0.00000023      -0.00000030       0.00079804      -0.00313559       0.00000224
H        1.40315190       4.05035152      11.81395093        0       1.00000000      -0.00000070      -0.00000055       0.00000043      -0.00079657      -0.00317680      -0.00000362