18
Lattice="5.612310241546866 0.0 0.0 0.0 4.860403243099165 0.0 0.0 0.0 14.582432123328676" Properties=species:S:1:pos:R:3:tags:I:1:masses:R:1:momenta:R:3:forces:R:3 KEmax=23.26679191048647 iter=89277 volume=397.78090899293073 ns_energy=-11.635942335413244 last_walked_iter_clone=89162 energy=-11.635947831522905 stress="0.022583542505709504 -2.2720523375993595e-05 -4.57996292689946e-05 -2.2720523375993595e-05 0.02271250263656195 -1.2800283164163175e-05 -4.57996292689946e-05 -1.2800283164163175e-05 0.012406586583905114" pbc="T T F"
H        1.40307756       0.81006721       5.00000000        3       1.00000000       0.00000000       0.00000000       0.00000000       0.00000000       0.00000000       0.00000000
H        4.20923268       0.81006721       5.00000000        3       1.00000000       0.00000000       0.00000000       0.00000000       0.00000000       0.00000000       0.00000000
H        0.00000000       3.24026883       5.00000000        3       1.00000000       0.00000000       0.00000000       0.00000000       0.00000000       0.00000000       0.00000000
H        2.80615512       3.24026883       5.00000000        3       1.00000000       0.00000000       0.00000000       0.00000000       0.00000000       0.00000000       0.00000000
H        0.00000000       1.62013441       7.29121606        2       1.00000000       0.00000000       0.00000000       0.00000000       0.00000000       0.00000000       0.00000000
H        2.80615512       1.62013441       7.29121606        2       1.00000000       0.00000000       0.00000000       0.00000000       0.00000000       0.00000000       0.00000000
H        1.40307756       4.05033604       7.29121606        2       1.00000000       0.00000000       0.00000000       0.00000000       0.00000000       0.00000000       0.00000000
H        4.20923268       4.05033604       7.29121606        2       1.00000000       0.00000000       0.00000000       0.00000000       0.00000000       0.00000000       0.00000000
H        0.00000000       0.00000000       9.58243212        1       1.00000000       0.00000000       0.00000000       0.00000000       0.00000000       0.00000000       0.00000000
H        2.80615512       0.00000000       9.58243212        1       1.00000000       0.00000000       0.00000000       0.00000000       0.00000000       0.00000000       0.00000000
H        1.40307756       2.43020162       9.58243212        1       1.00000000       0.00000000       0.00000000       0.00000000       0.00000000       0.00000000       0.00000000
H        4.20923268       2.43020162       9.58243212        1       1.00000000       0.00000000       0.00000000       0.00000000       0.00000000       0.00000000       0.00000000
H        0.01031450       3.24000104      11.81153524        0       1.00000000      -0.00172983       0.00003859      -0.00008679       0.00069795      -0.00029736      -0.00215973
H        0.00085479      -0.00013855       2.77155710        0       1.00000000      -0.00043454       0.00075192      -0.00097983       0.00120037       0.00141656      -0.00203140
H        4.19904104       0.81113044      11.81068770        0       1.00000000       0.00015375       0.00042843      -0.00039051       0.00125967      -0.00021426      -0.00054209
H        4.21044204       2.42901837       2.77212351        0       1.00000000      -0.00067387      -0.00115207      -0.00056535      -0.00579703      -0.00126570      -0.00229722
H        2.80716040       4.86083079       2.77165125        0       1.00000000       0.00100701       0.00214806       0.00055783      -0.00016187      -0.00196749       0.00097659
H        1.40449053       2.43059992       2.77155321        0       1.00000000      -0.00133634      -0.00059295       0.00273866       0.00165705      -0.00010872      -0.00128071
18
Lattice="5.612310241546866 0.0 0.0 0.0 4.860403243099165 0.0 0.0 0.0 14.582432123328676" Properties=species:S:1:pos:R:3:tags:I:1:masses:R:1:momenta:R:3:forces:R:3 KEmax=23.26679191048647 iter=89277 volume=397.78090899293073 ns_energy=-11.635942189029596 last_walked_iter_clone=89161 energy=-11.635947831522905 stress="0.022583542505709504 -2.2720523375993595e-05 -4.57996292689946e-05 -2.2720523375993595e-05 0.02271250263656195 -1.2800283164163175e-05 -4.57996292689946e-05 -1.2800283164163175e-05 0.012406586583905114" pbc="T T F"
H        1.40307756       0.81006721       5.00000000        3       1.00000000       0.00000000       0.00000000       0.00000000       0.00000000       0.00000000       0.00000000
H        4.20923268       0.81006721       5.00000000        3       1.00000000       0.00000000       0.00000000       0.00000000       0.00000000       0.00000000       0.00000000
H        0.00000000       3.24026883       5.00000000        3       1.00000000       0.00000000       0.00000000       0.00000000       0.00000000       0.00000000       0.00000000
H        2.80615512       3.24026883       5.00000000        3       1.00000000       0.00000000       0.00000000       0.00000000       0.00000000       0.00000000       0.00000000
H        0.00000000       1.62013441       7.29121606        2       1.00000000       0.00000000       0.00000000       0.00000000       0.00000000       0.00000000       0.00000000
H        2.80615512       1.62013441       7.29121606        2       1.00000000       0.00000000       0.00000000       0.00000000       0.00000000       0.00000000       0.00000000
H        1.40307756       4.05033604       7.29121606        2       1.00000000       0.00000000       0.00000000       0.00000000       0.00000000       0.00000000       0.00000000
H        4.20923268       4.05033604       7.29121606        2       1.00000000       0.00000000       0.00000000       0.00000000       0.00000000       0.00000000       0.00000000
H        0.00000000       0.00000000       9.58243212        1       1.00000000       0.00000000       0.00000000       0.00000000       0.00000000       0.00000000       0.00000000
H        2.80615512       0.00000000       9.58243212        1       1.00000000       0.00000000       0.00000000       0.00000000       0.00000000       0.00000000       0.00000000
H        1.40307756       2.43020162       9.58243212        1       1.00000000       0.00000000       0.00000000       0.00000000       0.00000000       0.00000000       0.00000000
H        4.20923268       2.43020162       9.58243212        1       1.00000000       0.00000000       0.00000000       0.00000000       0.00000000       0.00000000       0.00000000
H        0.01008779       3.24058352      11.81010363        0       1.00000000      -0.00006258      -0.00057619      -0.00009314       0.00069795      -0.00029736      -0.00215973
H        5.61146198       4.86169317       2.77143215        0       1.00000000      -0.00104849      -0.00180002       0.00006138       0.00120037       0.00141656      -0.00203140
H        4.19810842       0.80934043      11.81039425        0       1.00000000       0.00073036      -0.00109956      -0.00039857       0.00125967      -0.00021426      -0.00054209
H        4.20809164       2.43195109       2.77200774        0       1.00000000       0.00030815       0.00058863      -0.00122471      -0.00579703      -0.00126570      -0.00229722
H        2.80541904       0.00056361       2.77192500        0       1.00000000      -0.00008827      -0.00075161      -0.00219737      -0.00016187      -0.00196749       0.00097659
H        1.40226809       2.43081529       2.77089841        0       1.00000000      -0.00019288       0.00190397      -0.00225131       0.00165705      -0.00010872      -0.00128071
18
Lattice="5.612310241546866 0.0 0.0 0.0 4.860403243099165 0.0 0.0 0.0 14.582432123328676" Properties=species:S:1:pos:R:3:tags:I:1:masses:R:1:momenta:R:3:forces:R:3 KEmax=23.26679191048647 iter=89277 volume=397.78090899293073 ns_energy=-11.63594169191428 last_walked_iter_clone=89116 energy=-11.635947831522905 stress="0.022583542505709504 -2.2720523375993595e-05 -4.57996292689946e-05 -2.2720523375993595e-05 0.02271250263656195 -1.2800283164163175e-05 -4.57996292689946e-05 -1.2800283164163175e-05 0.012406586583905114" pbc="T T F"
H        1.40307756       0.81006721       5.00000000        3       1.00000000       0.00000000       0.00000000       0.00000000       0.00000000       0.00000000       0.00000000
H        4.20923268       0.81006721       5.00000000        3       1.00000000       0.00000000       0.00000000       0.00000000       0.00000000       0.00000000       0.00000000
H        0.00000000       3.24026883       5.00000000        3       1.00000000       0.00000000       0.00000000       0.00000000       0.00000000       0.00000000       0.00000000
H        2.80615512       3.24026883       5.00000000        3       1.00000000       0.00000000       0.00000000       0.00000000       0.00000000       0.00000000       0.00000000
H        0.00000000       1.62013441       7.29121606        2       1.00000000       0.00000000       0.00000000       0.00000000       0.00000000       0.00000000       0.00000000
H        2.80615512       1.62013441       7.29121606        2       1.00000000       0.00000000       0.00000000       0.00000000       0.00000000       0.00000000       0.00000000
H        1.40307756       4.05033604       7.29121606        2       1.00000000       0.00000000       0.00000000       0.00000000       0.00000000       0.00000000       0.00000000
H        4.20923268       4.05033604       7.29121606        2       1.00000000       0.00000000       0.00000000       0.00000000       0.00000000       0.00000000       0.00000000
H        0.00000000       0.00000000       9.58243212        1       1.00000000       0.00000000       0.00000000       0.00000000       0.00000000       0.00000000       0.00000000
H        2.80615512       0.00000000       9.58243212        1       1.00000000       0.00000000       0.00000000       0.00000000       0.00000000       0.00000000       0.00000000
H        1.40307756       2.43020162       9.58243212        1       1.00000000       0.00000000       0.00000000       0.00000000       0.00000000       0.00000000       0.00000000
H        4.20923268       2.43020162       9.58243212        1       1.00000000       0.00000000       0.00000000       0.00000000       0.00000000       0.00000000       0.00000000
H        0.01001325       3.24012878      11.81018746        0       1.00000000       0.00163074      -0.00054526      -0.00032238       0.00069795      -0.00029736      -0.00215973
H        0.00093041      -0.00014948       2.77209474        0       1.00000000      -0.00092241      -0.00026134      -0.00061416       0.00120037       0.00141656      -0.00203140
H        4.19796405       0.80949498      11.81139066        0       1.00000000      -0.00186529       0.00174999      -0.00053729       0.00125967      -0.00021426      -0.00054209
H        4.21046848       2.42907315       2.77299188        0       1.00000000      -0.00041435       0.00184478       0.00097645      -0.00579703      -0.00126570      -0.00229722
H        2.80690779      -0.00047169       2.77125114        0       1.00000000      -0.00016019      -0.00054693      -0.00043310      -0.00016187      -0.00196749       0.00097659
H        1.40364747       2.42954654       2.77031707        0       1.00000000       0.00115001       0.00080842       0.00047071       0.00165705      -0.00010872      -0.00128071
18
Lattice="5.612310241546866 0.0 0.0 0.0 4.860403243099165 0.0 0.0 0.0 14.582432123328676" Properties=species:S:1:pos:R:3:tags:I:1:masses:R:1:momenta:R:3:forces:R:3 KEmax=23.26679191048647 iter=89277 volume=397.78090899293073 ns_energy=-11.635941913886706 last_walked_iter_clone=89216 energy=-11.635947831522905 stress="0.022583542505709504 -2.2720523375993595e-05 -4.57996292689946e-05 -2.2720523375993595e-05 0.02271250263656195 -1.2800283164163175e-05 -4.57996292689946e-05 -1.2800283164163175e-05 0.012406586583905114" pbc="T T F"
H        1.40307756       0.81006721       5.00000000        3       1.00000000       0.00000000       0.00000000       0.00000000       0.00000000       0.00000000       0.00000000
H        4.20923268       0.81006721       5.00000000        3       1.00000000       0.00000000       0.00000000       0.00000000       0.00000000       0.00000000       0.00000000
H        0.00000000       3.24026883       5.00000000        3       1.00000000       0.00000000       0.00000000       0.00000000       0.00000000       0.00000000       0.00000000
H        2.80615512       3.24026883       5.00000000        3       1.00000000       0.00000000       0.00000000       0.00000000       0.00000000       0.00000000       0.00000000
H        0.00000000       1.62013441       7.29121606        2       1.00000000       0.00000000       0.00000000       0.00000000       0.00000000       0.00000000       0.00000000
H        2.80615512       1.62013441       7.29121606        2       1.00000000       0.00000000       0.00000000       0.00000000       0.00000000       0.00000000       0.00000000
H        1.40307756       4.05033604       7.29121606        2       1.00000000       0.00000000       0.00000000       0.00000000       0.00000000       0.00000000       0.00000000
H        4.20923268       4.05033604       7.29121606        2       1.00000000       0.00000000       0.00000000       0.00000000       0.00000000       0.00000000       0.00000000
H        0.00000000       0.00000000       9.58243212        1       1.00000000       0.00000000       0.00000000       0.00000000       0.00000000       0.00000000       0.00000000
H        2.80615512       0.00000000       9.58243212        1       1.00000000       0.00000000       0.00000000       0.00000000       0.00000000       0.00000000       0.00000000
H        1.40307756       2.43020162       9.58243212        1       1.00000000       0.00000000       0.00000000       0.00000000       0.00000000       0.00000000       0.00000000
H        4.20923268       2.43020162       9.58243212        1       1.00000000       0.00000000       0.00000000       0.00000000       0.00000000       0.00000000       0.00000000
H        0.01103185       3.23975077      11.81039201        0       1.00000000       0.00024171      -0.00006770       0.00036887       0.00069795      -0.00029736      -0.00215973
H        0.00035834       0.00077396       2.77199289        0       1.00000000      -0.00130181       0.00123268      -0.00134467       0.00120037       0.00141656      -0.00203140
H        4.20004723       0.80944647      11.81071110        0       1.00000000       0.00065878      -0.00083845       0.00093723       0.00125967      -0.00021426      -0.00054209
H        4.21068777       2.43020852       2.77275864        0       1.00000000       0.00248315      -0.00024910       0.00196877      -0.00579703      -0.00126570      -0.00229722
H        2.80668041       0.00048093       2.77241264        0       1.00000000      -0.00020928       0.00057736      -0.00171469      -0.00016187      -0.00196749       0.00097659
H        1.40416812       2.43082612       2.77108398        0       1.00000000      -0.00033883      -0.00192081      -0.00116187       0.00165705      -0.00010872      -0.00128071
18
Lattice="5.612310241546866 0.0 0.0 0.0 4.860403243099165 0.0 0.0 0.0 14.582432123328676" Properties=species:S:1:pos:R:3:tags:I:1:masses:R:1:momenta:R:3:forces:R:3 KEmax=23.26679191048647 iter=89277 volume=397.78090899293073 ns_energy=-11.635942251097605 last_walked_iter_clone=89251 energy=-11.635947831522905 stress="0.022583542505709504 -2.2720523375993595e-05 -4.57996292689946e-05 -2.2720523375993595e-05 0.02271250263656195 -1.2800283164163175e-05 -4.57996292689946e-05 -1.2800283164163175e-05 0.012406586583905114" pbc="T T F"
H        1.40307756       0.81006721       5.00000000        3       1.00000000       0.00000000       0.00000000       0.00000000       0.00000000       0.00000000       0.00000000
H        4.20923268       0.81006721       5.00000000        3       1.00000000       0.00000000       0.00000000       0.00000000       0.00000000       0.00000000       0.00000000
H        0.00000000       3.24026883       5.00000000        3       1.00000000       0.00000000       0.00000000       0.00000000       0.00000000       0.00000000       0.00000000
H        2.80615512       3.24026883       5.00000000        3       1.00000000       0.00000000       0.00000000       0.00000000       0.00000000       0.00000000       0.00000000
H        0.00000000       1.62013441       7.29121606        2       1.00000000       0.00000000       0.00000000       0.00000000       0.00000000       0.00000000       0.00000000
H        2.80615512       1.62013441       7.29121606        2       1.00000000       0.00000000       0.00000000       0.00000000       0.00000000       0.00000000       0.00000000
H        1.40307756       4.05033604       7.29121606        2       1.00000000       0.00000000       0.00000000       0.00000000       0.00000000       0.00000000       0.00000000
H        4.20923268       4.05033604       7.29121606        2       1.00000000       0.00000000       0.00000000       0.00000000       0.00000000       0.00000000       0.00000000
H        0.00000000       0.00000000       9.58243212        1       1.00000000       0.00000000       0.00000000       0.00000000       0.00000000       0.00000000       0.00000000
H        2.80615512       0.00000000       9.58243212        1       1.00000000       0.00000000       0.00000000       0.00000000       0.00000000       0.00000000       0.00000000
H        1.40307756       2.43020162       9.58243212        1       1.00000000       0.00000000       0.00000000       0.00000000       0.00000000       0.00000000       0.00000000
H        4.20923268       2.43020162       9.58243212        1       1.00000000       0.00000000       0.00000000       0.00000000       0.00000000       0.00000000       0.00000000
H        0.00987666       3.23940815      11.81046831        0       1.00000000       0.00220892      -0.00124694      -0.00195076       0.00069795      -0.00029736      -0.00215973
H        5.61174189       4.86078605       2.77242147        0       1.00000000       0.00027857      -0.00154806      -0.00021981       0.00120037       0.00141656      -0.00203140
H        4.19981582       0.80945436      11.81061770        0       1.00000000      -0.00052216       0.00030672       0.00144662       0.00125967      -0.00021426      -0.00054209
H        4.20886804       2.43044201       2.77324847        0       1.00000000       0.00073415      -0.00000275      -0.00216024      -0.00579703      -0.00126570      -0.00229722
H        2.80547451      -0.00037822       2.77134708        0       1.00000000      -0.00012229      -0.00018715      -0.00030721      -0.00016187      -0.00196749       0.00097659
H        1.40298731       2.42956220       2.77126148        0       1.00000000       0.00025463       0.00109517      -0.00174924       0.00165705      -0.00010872      -0.00128071
18
Lattice="5.612310241546866 0.0 0.0 0.0 4.860403243099165 0.0 0.0 0.0 14.582432123328676" Properties=species:S:1:pos:R:3:tags:I:1:masses:R:1:momenta:R:3:forces:R:3 KEmax=23.26679191048647 iter=89277 volume=397.78090899293073 ns_energy=-11.635942193483055 last_walked_iter_clone=89196 energy=-11.635947831522905 stress="0.022583542505709504 -2.2720523375993595e-05 -4.57996292689946e-05 -2.2720523375993595e-05 0.02271250263656195 -1.2800283164163175e-05 -4.57996292689946e-05 -1.2800283164163175e-05 0.012406586583905114" pbc="T T F"
H        1.40307756       0.81006721       5.00000000        3       1.00000000       0.00000000       0.00000000       0.00000000       0.00000000       0.00000000       0.00000000
H        4.20923268       0.81006721       5.00000000        3       1.00000000       0.00000000       0.00000000       0.00000000       0.00000000       0.00000000       0.00000000
H        0.00000000       3.24026883       5.00000000        3       1.00000000       0.00000000       0.00000000       0.00000000       0.00000000       0.00000000       0.00000000
H        2.80615512       3.24026883       5.00000000        3       1.00000000       0.00000000       0.00000000       0.00000000       0.00000000       0.00000000       0.00000000
H        0.00000000       1.62013441       7.29121606        2       1.00000000       0.00000000       0.00000000       0.00000000       0.00000000       0.00000000       0.00000000
H        2.80615512       1.62013441       7.29121606        2       1.00000000       0.00000000       0.00000000       0.00000000       0.00000000       0.00000000       0.00000000
H        1.40307756       4.05033604       7.29121606        2       1.00000000       0.00000000       0.00000000       0.00000000       0.00000000       0.00000000       0.00000000
H        4.20923268       4.05033604       7.29121606        2       1.00000000       0.00000000       0.00000000       0.00000000       0.00000000       0.00000000       0.00000000
H        0.00000000       0.00000000       9.58243212        1       1.00000000       0.00000000       0.00000000       0.00000000       0.00000000       0.00000000       0.00000000
H        2.80615512       0.00000000       9.58243212        1       1.00000000       0.00000000       0.00000000       0.00000000       0.00000000       0.00000000       0.00000000
H        1.40307756       2.43020162       9.58243212        1       1.00000000       0.00000000       0.00000000       0.00000000       0.00000000       0.00000000       0.00000000
H        4.20923268       2.43020162       9.58243212        1       1.00000000       0.00000000       0.00000000       0.00000000       0.00000000       0.00000000       0.00000000
H        0.00901286       3.23985191      11.81289008        0       1.00000000      -0.00075229       0.00003373      -0.00107516       0.00069795      -0.00029736      -0.00215973
H        5.61101377      -0.00164370       2.77164901        0       1.00000000       0.00051754      -0.00066653       0.00066289       0.00120037       0.00141656      -0.00203140
H        4.19995459       0.80955148      11.81102802        0       1.00000000      -0.00027691       0.00049166       0.00230510       0.00125967      -0.00021426      -0.00054209
H        4.20902661       2.42917233       2.77086767        0       1.00000000      -0.00096743      -0.00057718      -0.00076015      -0.00579703      -0.00126570      -0.00229722
H        2.80548516       4.85942656       2.77128476        0       1.00000000       0.00100863       0.00032748       0.00082421      -0.00016187      -0.00196749       0.00097659
H        1.40252602       2.42945209       2.77149580        0       1.00000000       0.00060325       0.00029996       0.00116126       0.00165705      -0.00010872      -0.00128071
18
Lattice="5.612310241546866 0.0 0.0 0.0 4.860403243099165 0.0 0.0 0.0 14.582432123328676" Properties=species:S:1:pos:R:3:tags:I:1:masses:R:1:momenta:R:3:forces:R:3 KEmax=23.26679191048647 iter=89277 volume=397.78090899293073 ns_energy=-11.63594201685291 last_walked_iter_clone=89214 energy=-11.635947831522905 stress="0.022583542505709504 -2.2720523375993595e-05 -4.57996292689946e-05 -2.2720523375993595e-05 0.02271250263656195 -1.2800283164163175e-05 -4.57996292689946e-05 -1.2800283164163175e-05 0.012406586583905114" pbc="T T F"
H        1.40307756       0.81006721       5.00000000        3       1.00000000       0.00000000       0.00000000       0.00000000       0.00000000       0.00000000       0.00000000
H        4.20923268       0.81006721       5.00000000        3       1.00000000       0.00000000       0.00000000       0.00000000       0.00000000       0.00000000       0.00000000
H        0.00000000       3.24026883       5.00000000        3       1.00000000       0.00000000       0.00000000       0.00000000       0.00000000       0.00000000       0.00000000
H        2.80615512       3.24026883       5.00000000        3       1.00000000       0.00000000       0.00000000       0.00000000       0.00000000       0.00000000       0.00000000
H        0.00000000       1.62013441       7.29121606        2       1.00000000       0.00000000       0.00000000       0.00000000       0.00000000       0.00000000       0.00000000
H        2.80615512       1.62013441       7.29121606        2       1.00000000       0.00000000       0.00000000       0.00000000       0.00000000       0.00000000       0.00000000
H        1.40307756       4.05033604       7.29121606        2       1.00000000       0.00000000       0.00000000       0.00000000       0.00000000       0.00000000       0.00000000
H        4.20923268       4.05033604       7.29121606        2       1.00000000       0.00000000       0.00000000       0.00000000       0.00000000       0.00000000       0.00000000
H        0.00000000       0.00000000       9.58243212        1       1.00000000       0.00000000       0.00000000       0.00000000       0.00000000       0.00000000       0.00000000
H        2.80615512       0.00000000       9.58243212        1       1.00000000       0.00000000       0.00000000       0.00000000       0.00000000       0.00000000       0.00000000
H        1.40307756       2.43020162       9.58243212        1       1.00000000       0.00000000       0.00000000       0.00000000       0.00000000       0.00000000       0.00000000
H        4.20923268       2.43020162       9.58243212        1       1.00000000       0.00000000       0.00000000       0.00000000       0.00000000       0.00000000       0.00000000
H        0.01009882       3.24048786      11.81074578        0       1.00000000       0.00160710       0.00062964       0.00051897       0.00069795      -0.00029736      -0.00215973
H        5.61234969       4.85917411       2.77256346        0       1.00000000      -0.00033279       0.00061834      -0.00016930       0.00120037       0.00141656      -0.00203140
H        4.19950240       0.80913404      11.81174775        0       1.00000000       0.00094782       0.00085082      -0.00111475       0.00125967      -0.00021426      -0.00054209
H        4.20806653       2.42969368       2.77129027        0       1.00000000      -0.00028438       0.00205906      -0.00043895      -0.00579703      -0.00126570      -0.00229722
H        2.80626547       4.85904820       2.77178382        0       1.00000000       0.00014802       0.00131685       0.00216349      -0.00016187      -0.00196749       0.00097659
H        1.40176279       2.42978201       2.77149690        0       1.00000000       0.00130608       0.00090013       0.00049016       0.00165705      -0.00010872      -0.00128071
18
Lattice="5.612310241546866 0.0 0.0 0.0 4.860403243099165 0.0 0.0 0.0 14.582432123328676" Properties=species:S:1:pos:R:3:tags:I:1:masses:R:1:momenta:R:3:forces:R:3 KEmax=23.26679191048647 iter=89277 volume=397.78090899293073 ns_energy=-11.635942275646299 last_walked_iter_clone=89230 energy=-11.635947831522905 stress="0.022583542505709504 -2.2720523375993595e-05 -4.57996292689946e-05 -2.2720523375993595e-05 0.02271250263656195 -1.2800283164163175e-05 -4.57996292689946e-05 -1.2800283164163175e-05 0.012406586583905114" pbc="T T F"
H        1.40307756       0.81006721       5.00000000        3       1.00000000       0.00000000       0.00000000       0.00000000       0.00000000       0.00000000       0.00000000
H        4.20923268       0.81006721       5.00000000        3       1.00000000       0.00000000       0.00000000       0.00000000       0.00000000       0.00000000       0.00000000
H        0.00000000       3.24026883       5.00000000        3       1.00000000       0.00000000       0.00000000       0.00000000       0.00000000       0.00000000       0.00000000
H        2.80615512       3.24026883       5.00000000        3       1.00000000       0.00000000       0.00000000       0.00000000       0.00000000       0.00000000       0.00000000
H        0.00000000       1.62013441       7.29121606        2       1.00000000       0.00000000       0.00000000       0.00000000       0.00000000       0.00000000       0.00000000
H        2.80615512       1.62013441       7.29121606        2       1.00000000       0.00000000       0.00000000       0.00000000       0.00000000       0.00000000       0.00000000
H        1.40307756       4.05033604       7.29121606        2       1.00000000       0.00000000       0.00000000       0.00000000       0.00000000       0.00000000       0.00000000
H        4.20923268       4.05033604       7.29121606        2       1.00000000       0.00000000       0.00000000       0.00000000       0.00000000       0.00000000       0.00000000
H        0.00000000       0.00000000       9.58243212        1       1.00000000       0.00000000       0.00000000       0.00000000       0.00000000       0.00000000       0.00000000
H        2.80615512       0.00000000       9.58243212        1       1.00000000       0.00000000       0.00000000       0.00000000       0.00000000       0.00000000       0.00000000
H        1.40307756       2.43020162       9.58243212        1       1.00000000       0.00000000       0.00000000       0.00000000       0.00000000       0.00000000       0.00000000
H        4.20923268       2.43020162       9.58243212        1       1.00000000       0.00000000       0.00000000       0.00000000       0.00000000       0.00000000       0.00000000
H        0.01042120       3.23839824      11.81134918        0       1.00000000       0.00115928      -0.00079167       0.00070952       0.00069795      -0.00029736      -0.00215973
H        0.00019984       4.86082984       2.77153727        0       1.00000000      -0.00038434      -0.00057839       0.00086425       0.00120037       0.00141656      -0.00203140
H        4.19789916       0.80953362      11.81162197        0       1.00000000      -0.00027497       0.00049417       0.00023793       0.00125967      -0.00021426      -0.00054209