18
Lattice="5.612310241546866 0.0 0.0 0.0 4.860403243099165 0.0 0.0 0.0 14.582432123328676" Properties=species:S:1:pos:R:3:tags:I:1:masses:R:1:momenta:R:3:forces:R:3 KEmax=23.26679191048647 iter=239999 volume=397.78090899293073 ns_energy=-11.635961168365684 last_walked_iter_clone=233905 energy=-11.63596070378624 stress="0.022594146695609083 -4.6542154571018325e-08 1.008848208194533e-09 -4.6542154571018325e-08 0.02270852690171621 1.8303313979968223e-08 1.008848208194533e-09 1.8303313979968223e-08 0.01242436873595378" pbc="T T F"
H        1.40307756       0.81006721       5.00000000        3       1.00000000       0.00000000       0.00000000       0.00000000       0.00000000       0.00000000       0.00000000
H        4.20923268       0.81006721       5.00000000        3       1.00000000       0.00000000       0.00000000       0.00000000       0.00000000       0.00000000       0.00000000
H        0.00000000       3.24026883       5.00000000        3       1.00000000       0.00000000       0.00000000       0.00000000       0.00000000       0.00000000       0.00000000
H        2.80615512       3.24026883       5.00000000        3       1.00000000       0.00000000       0.00000000       0.00000000       0.00000000       0.00000000       0.00000000
H        0.00000000       1.62013441       7.29121606        2       1.00000000       0.00000000       0.00000000       0.00000000       0.00000000       0.00000000       0.00000000
H        2.80615512       1.62013441       7.29121606        2       1.00000000       0.00000000       0.00000000       0.00000000       0.00000000       0.00000000       0.00000000
H        1.40307756       4.05033604       7.29121606        2       1.00000000       0.00000000       0.00000000       0.00000000       0.00000000       0.00000000       0.00000000
H        4.20923268       4.05033604       7.29121606        2       1.00000000       0.00000000       0.00000000       0.00000000       0.00000000       0.00000000       0.00000000
H        0.00000000       0.00000000       9.58243212        1       1.00000000       0.00000000       0.00000000       0.00000000       0.00000000       0.00000000       0.00000000
H        2.80615512       0.00000000       9.58243212        1       1.00000000       0.00000000       0.00000000       0.00000000       0.00000000       0.00000000       0.00000000
H        1.40307756       2.43020162       9.58243212        1       1.00000000       0.00000000       0.00000000       0.00000000       0.00000000       0.00000000       0.00000000
H        4.20923268       2.43020162       9.58243212        1       1.00000000       0.00000000       0.00000000       0.00000000       0.00000000       0.00000000       0.00000000
H        0.00992322       3.24041436      11.81077006        0       1.00000000       0.00000026      -0.00000037      -0.00000006       0.00000028       0.00000878       0.00000258
H       -0.00000036       4.86040312       2.77172670        0       1.00000000      -0.00000084      -0.00000060       0.00000013      -0.00004501      -0.00009514       0.00000224
H        4.19930933       0.81021323      11.81077056        0       1.00000000       0.00000069       0.00000024       0.00000040      -0.00000012      -0.00001080       0.00000208
H        4.20923259       2.43020135       2.77172618        0       1.00000000       0.00000131      -0.00000013      -0.00000059      -0.00153722       0.00007301      -0.00000216
H        2.80615481       4.86040297       2.77172749        0       1.00000000      -0.00000077       0.00000023      -0.00000112       0.00004783      -0.00004270      -0.00000128
H        1.40307733       2.43020176       2.77172768        0       1.00000000       0.00000041      -0.00000056      -0.00000013       0.00153468       0.00006444       0.00000313
18
Lattice="5.612310241546866 0.0 0.0 0.0 4.860403243099165 0.0 0.0 0.0 14.582432123328676" Properties=species:S:1:pos:R:3:tags:I:1:masses:R:1:momenta:R:3:forces:R:3 KEmax=23.26679191048647 iter=239999 volume=397.78090899293073 ns_energy=-11.63596116836578 last_walked_iter_clone=232342 energy=-11.63596070378624 stress="0.022594146695609083 -4.6542154571018325e-08 1.008848208194533e-09 -4.6542154571018325e-08 0.02270852690171621 1.8303313979968223e-08 1.008848208194533e-09 1.8303313979968223e-08 0.01242436873595378" pbc="T T F"
H        1.40307756       0.81006721       5.00000000        3       1.00000000       0.00000000       0.00000000       0.00000000       0.00000000       0.00000000       0.00000000
H        4.20923268       0.81006721       5.00000000        3       1.00000000       0.00000000       0.00000000       0.00000000       0.00000000       0.00000000       0.00000000
H        0.00000000       3.24026883       5.00000000        3       1.00000000       0.00000000       0.00000000       0.00000000       0.00000000       0.00000000       0.00000000
H        2.80615512       3.24026883       5.00000000        3       1.00000000       0.00000000       0.00000000       0.00000000       0.00000000       0.00000000       0.00000000
H        0.00000000       1.62013441       7.29121606        2       1.00000000       0.00000000       0.00000000       0.00000000       0.00000000       0.00000000       0.00000000
H        2.80615512       1.62013441       7.29121606        2       1.00000000       0.00000000       0.00000000       0.00000000       0.00000000       0.00000000       0.00000000
H        1.40307756       4.05033604       7.29121606        2       1.00000000       0.00000000       0.00000000       0.00000000       0.00000000       0.00000000       0.00000000
H        4.20923268       4.05033604       7.29121606        2       1.00000000       0.00000000       0.00000000       0.00000000       0.00000000       0.00000000       0.00000000
H        0.00000000       0.00000000       9.58243212        1       1.00000000       0.00000000       0.00000000       0.00000000       0.00000000       0.00000000       0.00000000
H        2.80615512       0.00000000       9.58243212        1       1.00000000       0.00000000       0.00000000       0.00000000       0.00000000       0.00000000       0.00000000
H        1.40307756       2.43020162       9.58243212        1       1.00000000       0.00000000       0.00000000       0.00000000       0.00000000       0.00000000       0.00000000
H        4.20923268       2.43020162       9.58243212        1       1.00000000       0.00000000       0.00000000       0.00000000       0.00000000       0.00000000       0.00000000
H        0.00992433       3.24041624      11.81076994        0       1.00000000       0.00000042       0.00000051      -0.00000111       0.00000028       0.00000878       0.00000258
H        5.61231070       0.00000072       2.77172663        0       1.00000000       0.00000048       0.00000022      -0.00000050      -0.00004501      -0.00009514       0.00000224
H        4.19930957       0.81021409      11.81077060        0       1.00000000      -0.00000049       0.00000089      -0.00000086      -0.00000012      -0.00001080       0.00000208
H        4.20923321       2.43020209       2.77172725        0       1.00000000      -0.00000049       0.00000028      -0.00000050      -0.00153722       0.00007301      -0.00000216
H        2.80615568       4.86040349       2.77172716        0       1.00000000      -0.00000010      -0.00000007       0.00000026       0.00004783      -0.00004270      -0.00000128
H        1.40307871       2.43020199       2.77172775        0       1.00000000       0.00000004      -0.00000060       0.00000072       0.00153468       0.00006444       0.00000313
18
Lattice="5.612310241546866 0.0 0.0 0.0 4.860403243099165 0.0 0.0 0.0 14.582432123328676" Properties=species:S:1:pos:R:3:tags:I:1:masses:R:1:momenta:R:3:forces:R:3 KEmax=23.26679191048647 iter=239999 volume=397.78090899293073 ns_energy=-11.63596116836583 last_walked_iter_clone=237445 energy=-11.63596070378624 stress="0.022594146695609083 -4.6542154571018325e-08 1.008848208194533e-09 -4.6542154571018325e-08 0.02270852690171621 1.8303313979968223e-08 1.008848208194533e-09 1.8303313979968223e-08 0.01242436873595378" pbc="T T F"
H        1.40307756       0.81006721       5.00000000        3       1.00000000       0.00000000       0.00000000       0.00000000       0.00000000       0.00000000       0.00000000
H        4.20923268       0.81006721       5.00000000        3       1.00000000       0.00000000       0.00000000       0.00000000       0.00000000       0.00000000       0.00000000
H        0.00000000       3.24026883       5.00000000        3       1.00000000       0.00000000       0.00000000       0.00000000       0.00000000       0.00000000       0.00000000
H        2.80615512       3.24026883       5.00000000        3       1.00000000       0.00000000       0.00000000       0.00000000       0.00000000       0.00000000       0.00000000
H        0.00000000       1.62013441       7.29121606        2       1.00000000       0.00000000       0.00000000       0.00000000       0.00000000       0.00000000       0.00000000
H        2.80615512       1.62013441       7.29121606        2       1.00000000       0.00000000       0.00000000       0.00000000       0.00000000       0.00000000       0.00000000
H        1.40307756       4.05033604       7.29121606        2       1.00000000       0.00000000       0.00000000       0.00000000       0.00000000       0.00000000       0.00000000
H        4.20923268       4.05033604       7.29121606        2       1.00000000       0.00000000       0.00000000       0.00000000       0.00000000       0.00000000       0.00000000
H        0.00000000       0.00000000       9.58243212        1       1.00000000       0.00000000       0.00000000       0.00000000       0.00000000       0.00000000       0.00000000
H        2.80615512       0.00000000       9.58243212        1       1.00000000       0.00000000       0.00000000       0.00000000       0.00000000       0.00000000       0.00000000
H        1.40307756       2.43020162       9.58243212        1       1.00000000       0.00000000       0.00000000       0.00000000       0.00000000       0.00000000       0.00000000
H        4.20923268       2.43020162       9.58243212        1       1.00000000       0.00000000       0.00000000       0.00000000       0.00000000       0.00000000       0.00000000
H        0.00992367       3.24041494      11.81077068        0       1.00000000       0.00000082       0.00000004      -0.00000002       0.00000028       0.00000878       0.00000258
H       -0.00000014       4.86040346       2.77172745        0       1.00000000      -0.00000026      -0.00000047      -0.00000134      -0.00004501      -0.00009514       0.00000224
H        4.19930838       0.81021269      11.81077068        0       1.00000000      -0.00000033      -0.00000009      -0.00000101      -0.00000012      -0.00001080       0.00000208
H        4.20923263       2.43020240       2.77172688        0       1.00000000      -0.00000000       0.00000029       0.00000114      -0.00153722       0.00007301      -0.00000216
H        2.80615520       4.86040393       2.77172657        0       1.00000000      -0.00000005      -0.00000032       0.00000020       0.00004783      -0.00004270      -0.00000128
H        1.40307726       2.43020226       2.77172759        0       1.00000000       0.00000018       0.00000044      -0.00000114       0.00153468       0.00006444       0.00000313
18
Lattice="5.612310241546866 0.0 0.0 0.0 4.860403243099165 0.0 0.0 0.0 14.582432123328676" Properties=species:S:1:pos:R:3:tags:I:1:masses:R:1:momenta:R:3:forces:R:3 KEmax=23.26679191048647 iter=239999 volume=397.78090899293073 ns_energy=-11.635961168365693 last_walked_iter_clone=237828 energy=-11.63596070378624 stress="0.022594146695609083 -4.6542154571018325e-08 1.008848208194533e-09 -4.6542154571018325e-08 0.02270852690171621 1.8303313979968223e-08 1.008848208194533e-09 1.8303313979968223e-08 0.01242436873595378" pbc="T T F"
H        1.40307756       0.81006721       5.00000000        3       1.00000000       0.00000000       0.00000000       0.00000000       0.00000000       0.00000000       0.00000000
H        4.20923268       0.81006721       5.00000000        3       1.00000000       0.00000000       0.00000000       0.00000000       0.00000000       0.00000000       0.00000000
H        0.00000000       3.24026883       5.00000000        3       1.00000000       0.00000000       0.00000000       0.00000000       0.00000000       0.00000000       0.00000000
H        2.80615512       3.24026883       5.00000000        3       1.00000000       0.00000000       0.00000000       0.00000000       0.00000000       0.00000000       0.00000000
H        0.00000000       1.62013441       7.29121606        2       1.00000000       0.00000000       0.00000000       0.00000000       0.00000000       0.00000000       0.00000000
H        2.80615512       1.62013441       7.29121606        2       1.00000000       0.00000000       0.00000000       0.00000000       0.00000000       0.00000000       0.00000000
H        1.40307756       4.05033604       7.29121606        2       1.00000000       0.00000000       0.00000000       0.00000000       0.00000000       0.00000000       0.00000000
H        4.20923268       4.05033604       7.29121606        2       1.00000000       0.00000000       0.00000000       0.00000000       0.00000000       0.00000000       0.00000000
H        0.00000000       0.00000000       9.58243212        1       1.00000000       0.00000000       0.00000000       0.00000000       0.00000000       0.00000000       0.00000000
H        2.80615512       0.00000000       9.58243212        1       1.00000000       0.00000000       0.00000000       0.00000000       0.00000000       0.00000000       0.00000000
H        1.40307756       2.43020162       9.58243212        1       1.00000000       0.00000000       0.00000000       0.00000000       0.00000000       0.00000000       0.00000000
H        4.20923268       2.43020162       9.58243212        1       1.00000000       0.00000000       0.00000000       0.00000000       0.00000000       0.00000000       0.00000000
H        0.00992364       3.24041451      11.81077066        0       1.00000000       0.00000041       0.00000006       0.00000027       0.00000028       0.00000878       0.00000258
H        5.61231064      -0.00000007       2.77172685        0       1.00000000       0.00000036       0.00000009      -0.00000125      -0.00004501      -0.00009514       0.00000224
H        4.19930827       0.81021388      11.81077080        0       1.00000000       0.00000021      -0.00000113       0.00000052      -0.00000012      -0.00001080       0.00000208
H        4.20923250       2.43020170       2.77172697        0       1.00000000       0.00000083       0.00000023       0.00000037      -0.00153722       0.00007301      -0.00000216
H        2.80615507      -0.00000017       2.77172707        0       1.00000000       0.00000035      -0.00000010      -0.00000165       0.00004783      -0.00004270      -0.00000128
H        1.40307803       2.43020141       2.77172727        0       1.00000000       0.00000082      -0.00000025       0.00000039       0.00153468       0.00006444       0.00000313
18
Lattice="5.612310241546866 0.0 0.0 0.0 4.860403243099165 0.0 0.0 0.0 14.582432123328676" Properties=species:S:1:pos:R:3:tags:I:1:masses:R:1:momenta:R:3:forces:R:3 KEmax=23.26679191048647 iter=239999 volume=397.78090899293073 ns_energy=-11.635961168365766 last_walked_iter_clone=237664 energy=-11.63596070378624 stress="0.022594146695609083 -4.6542154571018325e-08 1.008848208194533e-09 -4.6542154571018325e-08 0.02270852690171621 1.8303313979968223e-08 1.008848208194533e-09 1.8303313979968223e-08 0.01242436873595378" pbc="T T F"
H        1.40307756       0.81006721       5.00000000        3       1.00000000       0.00000000       0.00000000       0.00000000       0.00000000       0.00000000       0.00000000
H        4.20923268       0.81006721       5.00000000        3       1.00000000       0.00000000       0.00000000       0.00000000       0.00000000       0.00000000       0.00000000
H        0.00000000       3.24026883       5.00000000        3       1.00000000       0.00000000       0.00000000       0.00000000       0.00000000       0.00000000       0.00000000
H        2.80615512       3.24026883       5.00000000        3       1.00000000       0.00000000       0.00000000       0.00000000       0.00000000       0.00000000       0.00000000
H        0.00000000       1.62013441       7.29121606        2       1.00000000       0.00000000       0.00000000       0.00000000       0.00000000       0.00000000       0.00000000
H        2.80615512       1.62013441       7.29121606        2       1.00000000       0.00000000       0.00000000       0.00000000       0.00000000       0.00000000       0.00000000
H        1.40307756       4.05033604       7.29121606        2       1.00000000       0.00000000       0.00000000       0.00000000       0.00000000       0.00000000       0.00000000
H        4.20923268       4.05033604       7.29121606        2       1.00000000       0.00000000       0.00000000       0.00000000       0.00000000       0.00000000       0.00000000
H        0.00000000       0.00000000       9.58243212        1       1.00000000       0.00000000       0.00000000       0.00000000       0.00000000       0.00000000       0.00000000
H        2.80615512       0.00000000       9.58243212        1       1.00000000       0.00000000       0.00000000       0.00000000       0.00000000       0.00000000       0.00000000
H        1.40307756       2.43020162       9.58243212        1       1.00000000       0.00000000       0.00000000       0.00000000       0.00000000       0.00000000       0.00000000
H        4.20923268       2.43020162       9.58243212        1       1.00000000       0.00000000       0.00000000       0.00000000       0.00000000       0.00000000       0.00000000
H        0.00992353       3.24041630      11.81077059        0       1.00000000      -0.00000048       0.00000031      -0.00000085       0.00000028       0.00000878       0.00000258
H        0.00000024      -0.00000062       2.77172737        0       1.00000000      -0.00000157      -0.00000004      -0.00000112      -0.00004501      -0.00009514       0.00000224
H        4.19931019       0.81021470      11.81077046        0       1.00000000       0.00000048       0.00000009       0.00000063      -0.00000012      -0.00001080       0.00000208
H        4.20923251       2.43020078       2.77172694        0       1.00000000      -0.00000030       0.00000064       0.00000030      -0.00153722       0.00007301      -0.00000216
H        2.80615498      -0.00000025       2.77172664        0       1.00000000       0.00000042       0.00000020      -0.00000119       0.00004783      -0.00004270      -0.00000128
H        1.40307750       2.43020112       2.77172739        0       1.00000000      -0.00000020       0.00000032      -0.00000019       0.00153468       0.00006444       0.00000313
18
Lattice="5.612310241546866 0.0 0.0 0.0 4.860403243099165 0.0 0.0 0.0 14.582432123328676" Properties=species:S:1:pos:R:3:tags:I:1:masses:R:1:momenta:R:3:forces:R:3 KEmax=23.26679191048647 iter=239999 volume=397.78090899293073 ns_energy=-11.635961168365696 last_walked_iter_clone=233468 energy=-11.63596070378624 stress="0.022594146695609083 -4.6542154571018325e-08 1.008848208194533e-09 -4.6542154571018325e-08 0.02270852690171621 1.8303313979968223e-08 1.008848208194533e-09 1.8303313979968223e-08 0.01242436873595378" pbc="T T F"
H        1.40307756       0.81006721       5.00000000        3       1.00000000       0.00000000       0.00000000       0.00000000       0.00000000       0.00000000       0.00000000
H        4.20923268       0.81006721       5.00000000        3       1.00000000       0.00000000       0.00000000       0.00000000       0.00000000       0.00000000       0.00000000
H        0.00000000       3.24026883       5.00000000        3       1.00000000       0.00000000       0.00000000       0.00000000       0.00000000       0.00000000       0.00000000
H        2.80615512       3.24026883       5.00000000        3       1.00000000       0.00000000       0.00000000       0.00000000       0.00000000       0.00000000       0.00000000
H        0.00000000       1.62013441       7.29121606        2       1.00000000       0.00000000       0.00000000       0.00000000       0.00000000       0.00000000       0.00000000
H        2.80615512       1.62013441       7.29121606        2       1.00000000       0.00000000       0.00000000       0.00000000       0.00000000       0.00000000       0.00000000
H        1.40307756       4.05033604       7.29121606        2       1.00000000       0.00000000       0.00000000       0.00000000       0.00000000       0.00000000       0.00000000
H        4.20923268       4.05033604       7.29121606        2       1.00000000       0.00000000       0.00000000       0.00000000       0.00000000       0.00000000       0.00000000
H        0.00000000       0.00000000       9.58243212        1       1.00000000       0.00000000       0.00000000       0.00000000       0.00000000       0.00000000       0.00000000
H        2.80615512       0.00000000       9.58243212        1       1.00000000       0.00000000       0.00000000       0.00000000       0.00000000       0.00000000       0.00000000
H        1.40307756       2.43020162       9.58243212        1       1.00000000       0.00000000       0.00000000       0.00000000       0.00000000       0.00000000       0.00000000
H        4.20923268       2.43020162       9.58243212        1       1.00000000       0.00000000       0.00000000       0.00000000       0.00000000       0.00000000       0.00000000
H        0.00992295       3.24041551      11.81077040        0       1.00000000      -0.00000072       0.00000012      -0.00000091       0.00000028       0.00000878       0.00000258
H       -0.00000006       4.86040387       2.77172692        0       1.00000000       0.00000033       0.00000019      -0.00000037      -0.00004501      -0.00009514       0.00000224
H        4.19930877       0.81021438      11.81077069        0       1.00000000       0.00000017       0.00000021      -0.00000024      -0.00000012      -0.00001080       0.00000208
H        4.20923276       2.43020202       2.77172693        0       1.00000000      -0.00000022       0.00000048       0.00000046      -0.00153722       0.00007301      -0.00000216
H        2.80615579       4.86040287       2.77172696        0       1.00000000       0.00000026       0.00000048       0.00000166       0.00004783      -0.00004270      -0.00000128
H        1.40307785       2.43020147       2.77172731        0       1.00000000       0.00000047       0.00000124      -0.00000091       0.00153468       0.00006444       0.00000313
18
Lattice="5.612310241546866 0.0 0.0 0.0 4.860403243099165 0.0 0.0 0.0 14.582432123328676" Properties=species:S:1:pos:R:3:tags:I:1:masses:R:1:momenta:R:3:forces:R:3 KEmax=23.26679191048647 iter=239999 volume=397.78090899293073 ns_energy=-11.635961168365759 last_walked_iter_clone=238366 energy=-11.63596070378624 stress="0.022594146695609083 -4.6542154571018325e-08 1.008848208194533e-09 -4.6542154571018325e-08 0.02270852690171621 1.8303313979968223e-08 1.008848208194533e-09 1.8303313979968223e-08 0.01242436873595378" pbc="T T F"
H        1.40307756       0.81006721       5.00000000        3       1.00000000       0.00000000       0.00000000       0.00000000       0.00000000       0.00000000       0.00000000
H        4.20923268       0.81006721       5.00000000        3       1.00000000       0.00000000       0.00000000       0.00000000       0.00000000       0.00000000       0.00000000
H        0.00000000       3.24026883       5.00000000        3       1.00000000       0.00000000       0.00000000       0.00000000       0.00000000       0.00000000       0.00000000
H        2.80615512       3.24026883       5.00000000        3       1.00000000       0.00000000       0.00000000       0.00000000       0.00000000       0.00000000       0.00000000
H        0.00000000       1.62013441       7.29121606        2       1.00000000       0.00000000       0.00000000       0.00000000       0.00000000       0.00000000       0.00000000
H        2.80615512       1.62013441       7.29121606        2       1.00000000       0.00000000       0.00000000       0.00000000       0.00000000       0.00000000       0.00000000
H        1.40307756       4.05033604       7.29121606        2       1.00000000       0.00000000       0.00000000       0.00000000       0.00000000       0.00000000       0.00000000
H        4.20923268       4.05033604       7.29121606        2       1.00000000       0.00000000       0.00000000       0.00000000       0.00000000       0.00000000       0.00000000
H        0.00000000       0.00000000       9.58243212        1       1.00000000       0.00000000       0.00000000       0.00000000       0.00000000       0.00000000       0.00000000
H        2.80615512       0.00000000       9.58243212        1       1.00000000       0.00000000       0.00000000       0.00000000       0.00000000       0.00000000       0.00000000
H        1.40307756       2.43020162       9.58243212        1       1.00000000       0.00000000       0.00000000       0.00000000       0.00000000       0.00000000       0.00000000
H        4.20923268       2.43020162       9.58243212        1       1.00000000       0.00000000       0.00000000       0.00000000       0.00000000       0.00000000       0.00000000
H        0.00992379       3.24041604      11.81077044        0       1.00000000      -0.00000089      -0.00000021      -0.00000037       0.00000028       0.00000878       0.00000258
H        0.00000050       4.86040322       2.77172743        0       1.00000000       0.00000097       0.00000046       0.00000055      -0.00004501      -0.00009514       0.00000224
H        4.19930868       0.81021438      11.81077104        0       1.00000000      -0.00000044      -0.00000066      -0.00000036      -0.00000012      -0.00001080       0.00000208
H        4.20923301       2.43020130       2.77172651        0       1.00000000      -0.00000107       0.00000142       0.00000026      -0.00153722       0.00007301      -0.00000216
H        2.80615582       0.00000042       2.77172683        0       1.00000000       0.00000020      -0.00000064       0.00000029       0.00004783      -0.00004270      -0.00000128
H        1.40307740       2.43020153       2.77172703        0       1.00000000       0.00000043       0.00000043       0.00000028       0.00153468       0.00006444       0.00000313
18
Lattice="5.612310241546866 0.0 0.0 0.0 4.860403243099165 0.0 0.0 0.0 14.582432123328676" Properties=species:S:1:pos:R:3:tags:I:1:masses:R:1:momenta:R:3:forces:R:3 KEmax=23.26679191048647 iter=239999 volume=397.78090899293073 ns_energy=-11.635961168365636 last_walked_iter_clone=238078 energy=-11.63596070378624 stress="0.022594146695609083 -4.6542154571018325e-08 1.008848208194533e-09 -4.6542154571018325e-08 0.02270852690171621 1.8303313979968223e-08 1.008848208194533e-09 1.8303313979968223e-08 0.01242436873595378" pbc="T T F"
H        1.40307756       0.81006721       5.00000000        3       1.00000000       0.00000000       0.00000000       0.00000000       0.00000000       0.00000000       0.00000000
H        4.20923268       0.81006721       5.00000000        3       1.00000000       0.00000000       0.00000000       0.00000000       0.00000000       0.00000000       0.00000000
H        0.00000000       3.24026883       5.00000000        3       1.00000000       0.00000000       0.00000000       0.00000000       0.00000000       0.00000000       0.00000000
H        2.80615512       3.24026883       5.00000000        3       1.00000000       0.00000000       0.00000000       0.00000000       0.00000000       0.00000000       0.00000000
H        0.00000000       1.62013441       7.29121606        2       1.00000000       0.00000000       0.00000000       0.00000000       0.00000000       0.00000000       0.00000000
H        2.80615512       1.62013441       7.29121606        2       1.00000000       0.00000000       0.00000000       0.00000000       0.00000000       0.00000000       0.00000000
H        1.40307756       4.05033604       7.29121606        2       1.00000000       0.00000000       0.00000000       0.00000000       0.00000000       0.00000000       0.00000000
H        4.20923268       4.05033604       7.29121606        2       1.00000000       0.00000000       0.00000000       0.00000000       0.00000000       0.00000000       0.00000000
H        0.00000000       0.00000000       9.58243212        1       1.00000000       0.00000000       0.00000000       0.00000000       0.00000000       0.00000000       0.00000000
H        2.80615512       0.00000000       9.58243212        1       1.00000000       0.00000000       0.00000000       0.00000000       0.00000000       0.00000000       0.00000000
H        1.40307756       2.43020162       9.58243212        1       1.00000000       0.00000000       0.00000000       0.00000000       0.00000000       0.00000000       0.00000000
H        4.20923268       2.43020162       9.58243212        1       1.00000000       0.00000000       0.00000000       0.00000000       0.00000000       0.00000000       0.00000000
H        0.00992353       3.24041627      11.81077027        0       1.00000000       0.00000064       0.00000048       0.00000058       0.00000028       0.00000878       0.00000258
H        5.61231004       4.86040352       2.77172677        0       1.00000000       0.00000098       0.00000009      -0.00000002      -0.00004501      -0.00009514       0.00000224
H        4.19930873       0.81021450      11.81077053        0       1.00000000      -0.00000018      -0.00000001      -0.00000068      -0.00000012      -0.00001080       0.00000208