18
Lattice="5.612310241546866 0.0 0.0 0.0 4.860403243099165 0.0 0.0 0.0 14.582432123328676" Properties=species:S:1:pos:R:3:tags:I:1:masses:R:1:momenta:R:3:forces:R:3 KEmax=23.26679191048647 iter=168436 volume=397.78090899293073 ns_energy=-11.635961168197 last_walked_iter_clone=167949 energy=-11.635961168262217 stress="0.022594177530830345 3.201861620324713e-08 -7.254423029866179e-09 3.201861620324713e-08 0.02270856058691108 4.033799612611579e-09 -7.254423029866179e-09 4.033799612611579e-09 0.012424377874167607" pbc="T T F"
H        1.40307756       0.81006721       5.00000000        3       1.00000000       0.00000000       0.00000000       0.00000000       0.00000000       0.00000000       0.00000000
H        4.20923268       0.81006721       5.00000000        3       1.00000000       0.00000000       0.00000000       0.00000000       0.00000000       0.00000000       0.00000000
H        0.00000000       3.24026883       5.00000000        3       1.00000000       0.00000000       0.00000000       0.00000000       0.00000000       0.00000000       0.00000000
H        2.80615512       3.24026883       5.00000000        3       1.00000000       0.00000000       0.00000000       0.00000000       0.00000000       0.00000000       0.00000000
H        0.00000000       1.62013441       7.29121606        2       1.00000000       0.00000000       0.00000000       0.00000000       0.00000000       0.00000000       0.00000000
H        2.80615512       1.62013441       7.29121606        2       1.00000000       0.00000000       0.00000000       0.00000000       0.00000000       0.00000000       0.00000000
H        1.40307756       4.05033604       7.29121606        2       1.00000000       0.00000000       0.00000000       0.00000000       0.00000000       0.00000000       0.00000000
H        4.20923268       4.05033604       7.29121606        2       1.00000000       0.00000000       0.00000000       0.00000000       0.00000000       0.00000000       0.00000000
H        0.00000000       0.00000000       9.58243212        1       1.00000000       0.00000000       0.00000000       0.00000000       0.00000000       0.00000000       0.00000000
H        2.80615512       0.00000000       9.58243212        1       1.00000000       0.00000000       0.00000000       0.00000000       0.00000000       0.00000000       0.00000000
H        1.40307756       2.43020162       9.58243212        1       1.00000000       0.00000000       0.00000000       0.00000000       0.00000000       0.00000000       0.00000000
H        4.20923268       2.43020162       9.58243212        1       1.00000000       0.00000000       0.00000000       0.00000000       0.00000000       0.00000000       0.00000000
H        0.00992409       3.24041856      11.81077304        0       1.00000000       0.00000044       0.00000583      -0.00000432      -0.00000300      -0.00000859      -0.00000256
H        5.61231238      -0.00000544       2.77172652        0       1.00000000       0.00000335       0.00000140       0.00000365      -0.00000615      -0.00001299       0.00000273
H        4.19930828       0.81021313      11.81077083        0       1.00000000       0.00000314      -0.00000075      -0.00000077      -0.00000021       0.00000615      -0.00000348
H        4.20923483       2.43019443       2.77172584        0       1.00000000       0.00000179       0.00000148       0.00000293      -0.00000989       0.00000713      -0.00000902
H        2.80615654      -0.00000566       2.77172599        0       1.00000000       0.00000289       0.00000152       0.00000253       0.00000731       0.00000310      -0.00000493
H        1.40307837       2.43019693       2.77172749        0       1.00000000       0.00000185      -0.00000707       0.00000446       0.00000473       0.00000038       0.00000335
18
Lattice="5.612310241546866 0.0 0.0 0.0 4.860403243099165 0.0 0.0 0.0 14.582432123328676" Properties=species:S:1:pos:R:3:tags:I:1:masses:R:1:momenta:R:3:forces:R:3 KEmax=23.26679191048647 iter=168436 volume=397.78090899293073 ns_energy=-11.635961168203925 last_walked_iter_clone=168409 energy=-11.635961168262217 stress="0.022594177530830345 3.201861620324713e-08 -7.254423029866179e-09 3.201861620324713e-08 0.02270856058691108 4.033799612611579e-09 -7.254423029866179e-09 4.033799612611579e-09 0.012424377874167607" pbc="T T F"
H        1.40307756       0.81006721       5.00000000        3       1.00000000       0.00000000       0.00000000       0.00000000       0.00000000       0.00000000       0.00000000
H        4.20923268       0.81006721       5.00000000        3       1.00000000       0.00000000       0.00000000       0.00000000       0.00000000       0.00000000       0.00000000
H        0.00000000       3.24026883       5.00000000        3       1.00000000       0.00000000       0.00000000       0.00000000       0.00000000       0.00000000       0.00000000
H        2.80615512       3.24026883       5.00000000        3       1.00000000       0.00000000       0.00000000       0.00000000       0.00000000       0.00000000       0.00000000
H        0.00000000       1.62013441       7.29121606        2       1.00000000       0.00000000       0.00000000       0.00000000       0.00000000       0.00000000       0.00000000
H        2.80615512       1.62013441       7.29121606        2       1.00000000       0.00000000       0.00000000       0.00000000       0.00000000       0.00000000       0.00000000
H        1.40307756       4.05033604       7.29121606        2       1.00000000       0.00000000       0.00000000       0.00000000       0.00000000       0.00000000       0.00000000
H        4.20923268       4.05033604       7.29121606        2       1.00000000       0.00000000       0.00000000       0.00000000       0.00000000       0.00000000       0.00000000
H        0.00000000       0.00000000       9.58243212        1       1.00000000       0.00000000       0.00000000       0.00000000       0.00000000       0.00000000       0.00000000
H        2.80615512       0.00000000       9.58243212        1       1.00000000       0.00000000       0.00000000       0.00000000       0.00000000       0.00000000       0.00000000
H        1.40307756       2.43020162       9.58243212        1       1.00000000       0.00000000       0.00000000       0.00000000       0.00000000       0.00000000       0.00000000
H        4.20923268       2.43020162       9.58243212        1       1.00000000       0.00000000       0.00000000       0.00000000       0.00000000       0.00000000       0.00000000
H        0.00992101       3.24041765      11.81077195        0       1.00000000       0.00000789       0.00000272      -0.00000143      -0.00000300      -0.00000859      -0.00000256
H       -0.00000440       4.86040478       2.77172454        0       1.00000000      -0.00000121      -0.00000521      -0.00000036      -0.00000615      -0.00001299       0.00000273
H        4.19930783       0.81021354      11.81077112        0       1.00000000       0.00000100      -0.00000385      -0.00000137      -0.00000021       0.00000615      -0.00000348
H        4.20923002       2.43020362       2.77172732        0       1.00000000      -0.00000349      -0.00000069       0.00000371      -0.00000989       0.00000713      -0.00000902
H        2.80615044       0.00000122       2.77172923        0       1.00000000      -0.00000149       0.00000308       0.00000135       0.00000731       0.00000310      -0.00000493
H        1.40307743       2.43020109       2.77172716        0       1.00000000       0.00000042       0.00000577      -0.00000449       0.00000473       0.00000038       0.00000335
18
Lattice="5.612310241546866 0.0 0.0 0.0 4.860403243099165 0.0 0.0 0.0 14.582432123328676" Properties=species:S:1:pos:R:3:tags:I:1:masses:R:1:momenta:R:3:forces:R:3 KEmax=23.26679191048647 iter=168436 volume=397.78090899293073 ns_energy=-11.635961168198607 last_walked_iter_clone=168341 energy=-11.635961168262217 stress="0.022594177530830345 3.201861620324713e-08 -7.254423029866179e-09 3.201861620324713e-08 0.02270856058691108 4.033799612611579e-09 -7.254423029866179e-09 4.033799612611579e-09 0.012424377874167607" pbc="T T F"
H        1.40307756       0.81006721       5.00000000        3       1.00000000       0.00000000       0.00000000       0.00000000       0.00000000       0.00000000       0.00000000
H        4.20923268       0.81006721       5.00000000        3       1.00000000       0.00000000       0.00000000       0.00000000       0.00000000       0.00000000       0.00000000
H        0.00000000       3.24026883       5.00000000        3       1.00000000       0.00000000       0.00000000       0.00000000       0.00000000       0.00000000       0.00000000
H        2.80615512       3.24026883       5.00000000        3       1.00000000       0.00000000       0.00000000       0.00000000       0.00000000       0.00000000       0.00000000
H        0.00000000       1.62013441       7.29121606        2       1.00000000       0.00000000       0.00000000       0.00000000       0.00000000       0.00000000       0.00000000
H        2.80615512       1.62013441       7.29121606        2       1.00000000       0.00000000       0.00000000       0.00000000       0.00000000       0.00000000       0.00000000
H        1.40307756       4.05033604       7.29121606        2       1.00000000       0.00000000       0.00000000       0.00000000       0.00000000       0.00000000       0.00000000
H        4.20923268       4.05033604       7.29121606        2       1.00000000       0.00000000       0.00000000       0.00000000       0.00000000       0.00000000       0.00000000
H        0.00000000       0.00000000       9.58243212        1       1.00000000       0.00000000       0.00000000       0.00000000       0.00000000       0.00000000       0.00000000
H        2.80615512       0.00000000       9.58243212        1       1.00000000       0.00000000       0.00000000       0.00000000       0.00000000       0.00000000       0.00000000
H        1.40307756       2.43020162       9.58243212        1       1.00000000       0.00000000       0.00000000       0.00000000       0.00000000       0.00000000       0.00000000
H        4.20923268       2.43020162       9.58243212        1       1.00000000       0.00000000       0.00000000       0.00000000       0.00000000       0.00000000       0.00000000
H        0.00992623       3.24041364      11.81077047        0       1.00000000      -0.00000310       0.00000363      -0.00000013      -0.00000300      -0.00000859      -0.00000256
H        0.00000220       4.86040530       2.77172789        0       1.00000000      -0.00000112      -0.00000059       0.00000526      -0.00000615      -0.00001299       0.00000273
H        4.19931535       0.81021377      11.81076905        0       1.00000000      -0.00000043       0.00000380       0.00000711      -0.00000021       0.00000615      -0.00000348
H        4.20923591       2.43020302       2.77172898        0       1.00000000       0.00000479       0.00000280       0.00000196      -0.00000989       0.00000713      -0.00000902
H        2.80615656       0.00000223       2.77172660        0       1.00000000      -0.00000179      -0.00000497       0.00000272       0.00000731       0.00000310      -0.00000493
H        1.40307716       2.43020403       2.77172856        0       1.00000000       0.00000410       0.00000163      -0.00000532       0.00000473       0.00000038       0.00000335
18
Lattice="5.612310241546866 0.0 0.0 0.0 4.860403243099165 0.0 0.0 0.0 14.582432123328676" Properties=species:S:1:pos:R:3:tags:I:1:masses:R:1:momenta:R:3:forces:R:3 KEmax=23.26679191048647 iter=168436 volume=397.78090899293073 ns_energy=-11.635961168195806 last_walked_iter_clone=168053 energy=-11.635961168262217 stress="0.022594177530830345 3.201861620324713e-08 -7.254423029866179e-09 3.201861620324713e-08 0.02270856058691108 4.033799612611579e-09 -7.254423029866179e-09 4.033799612611579e-09 0.012424377874167607" pbc="T T F"
H        1.40307756       0.81006721       5.00000000        3       1.00000000       0.00000000       0.00000000       0.00000000       0.00000000       0.00000000       0.00000000
H        4.20923268       0.81006721       5.00000000        3       1.00000000       0.00000000       0.00000000       0.00000000       0.00000000       0.00000000       0.00000000
H        0.00000000       3.24026883       5.00000000        3       1.00000000       0.00000000       0.00000000       0.00000000       0.00000000       0.00000000       0.00000000
H        2.80615512       3.24026883       5.00000000        3       1.00000000       0.00000000       0.00000000       0.00000000       0.00000000       0.00000000       0.00000000
H        0.00000000       1.62013441       7.29121606        2       1.00000000       0.00000000       0.00000000       0.00000000       0.00000000       0.00000000       0.00000000
H        2.80615512       1.62013441       7.29121606        2       1.00000000       0.00000000       0.00000000       0.00000000       0.00000000       0.00000000       0.00000000
H        1.40307756       4.05033604       7.29121606        2       1.00000000       0.00000000       0.00000000       0.00000000       0.00000000       0.00000000       0.00000000
H        4.20923268       4.05033604       7.29121606        2       1.00000000       0.00000000       0.00000000       0.00000000       0.00000000       0.00000000       0.00000000
H        0.00000000       0.00000000       9.58243212        1       1.00000000       0.00000000       0.00000000       0.00000000       0.00000000       0.00000000       0.00000000
H        2.80615512       0.00000000       9.58243212        1       1.00000000       0.00000000       0.00000000       0.00000000       0.00000000       0.00000000       0.00000000
H        1.40307756       2.43020162       9.58243212        1       1.00000000       0.00000000       0.00000000       0.00000000       0.00000000       0.00000000       0.00000000
H        4.20923268       2.43020162       9.58243212        1       1.00000000       0.00000000       0.00000000       0.00000000       0.00000000       0.00000000       0.00000000
H        0.00992469       3.24041175      11.81077213        0       1.00000000       0.00000140       0.00000360      -0.00000650      -0.00000300      -0.00000859      -0.00000256
H       -0.00000052      -0.00000048       2.77172754        0       1.00000000       0.00000388      -0.00000198      -0.00000069      -0.00000615      -0.00001299       0.00000273
H        4.19931414       0.81020949      11.81076793        0       1.00000000       0.00000026      -0.00000088       0.00000024      -0.00000021       0.00000615      -0.00000348
H        4.20923336       2.43020082       2.77173030        0       1.00000000       0.00000097       0.00000817       0.00000185      -0.00000989       0.00000713      -0.00000902
H        2.80615304      -0.00000162       2.77172609        0       1.00000000       0.00000406      -0.00000030      -0.00000164       0.00000731       0.00000310      -0.00000493
H        1.40307713       2.43019840       2.77172518        0       1.00000000       0.00000123      -0.00000505       0.00000341       0.00000473       0.00000038       0.00000335
18
Lattice="5.612310241546866 0.0 0.0 0.0 4.860403243099165 0.0 0.0 0.0 14.582432123328676" Properties=species:S:1:pos:R:3:tags:I:1:masses:R:1:momenta:R:3:forces:R:3 KEmax=23.26679191048647 iter=168436 volume=397.78090899293073 ns_energy=-11.635961168196733 last_walked_iter_clone=168343 energy=-11.635961168262217 stress="0.022594177530830345 3.201861620324713e-08 -7.254423029866179e-09 3.201861620324713e-08 0.02270856058691108 4.033799612611579e-09 -7.254423029866179e-09 4.033799612611579e-09 0.012424377874167607" pbc="T T F"
H        1.40307756       0.81006721       5.00000000        3       1.00000000       0.00000000       0.00000000       0.00000000       0.00000000       0.00000000       0.00000000
H        4.20923268       0.81006721       5.00000000        3       1.00000000       0.00000000       0.00000000       0.00000000       0.00000000       0.00000000       0.00000000
H        0.00000000       3.24026883       5.00000000        3       1.00000000       0.00000000       0.00000000       0.00000000       0.00000000       0.00000000       0.00000000
H        2.80615512       3.24026883       5.00000000        3       1.00000000       0.00000000       0.00000000       0.00000000       0.00000000       0.00000000       0.00000000
H        0.00000000       1.62013441       7.29121606        2       1.00000000       0.00000000       0.00000000       0.00000000       0.00000000       0.00000000       0.00000000
H        2.80615512       1.62013441       7.29121606        2       1.00000000       0.00000000       0.00000000       0.00000000       0.00000000       0.00000000       0.00000000
H        1.40307756       4.05033604       7.29121606        2       1.00000000       0.00000000       0.00000000       0.00000000       0.00000000       0.00000000       0.00000000
H        4.20923268       4.05033604       7.29121606        2       1.00000000       0.00000000       0.00000000       0.00000000       0.00000000       0.00000000       0.00000000
H        0.00000000       0.00000000       9.58243212        1       1.00000000       0.00000000       0.00000000       0.00000000       0.00000000       0.00000000       0.00000000
H        2.80615512       0.00000000       9.58243212        1       1.00000000       0.00000000       0.00000000       0.00000000       0.00000000       0.00000000       0.00000000
H        1.40307756       2.43020162       9.58243212        1       1.00000000       0.00000000       0.00000000       0.00000000       0.00000000       0.00000000       0.00000000
H        4.20923268       2.43020162       9.58243212        1       1.00000000       0.00000000       0.00000000       0.00000000       0.00000000       0.00000000       0.00000000
H        0.00991661       3.24041821      11.81077149        0       1.00000000       0.00000157       0.00000058      -0.00001019      -0.00000300      -0.00000859      -0.00000256
H        5.61231225      -0.00000310       2.77172804        0       1.00000000       0.00000462      -0.00000487       0.00000150      -0.00000615      -0.00001299       0.00000273
H        4.19930698       0.81021440      11.81077213        0       1.00000000      -0.00000186       0.00000090       0.00000183      -0.00000021       0.00000615      -0.00000348
H        4.20923146       2.43020174       2.77172805        0       1.00000000      -0.00000275      -0.00000387       0.00000163      -0.00000989       0.00000713      -0.00000902
H        2.80615610      -0.00000010       2.77172685        0       1.00000000      -0.00000108      -0.00000021       0.00000192       0.00000731       0.00000310      -0.00000493
H        1.40307776       2.43019967       2.77172729        0       1.00000000       0.00000301      -0.00000522       0.00000170       0.00000473       0.00000038       0.00000335
18
Lattice="5.612310241546866 0.0 0.0 0.0 4.860403243099165 0.0 0.0 0.0 14.582432123328676" Properties=species:S:1:pos:R:3:tags:I:1:masses:R:1:momenta:R:3:forces:R:3 KEmax=23.26679191048647 iter=168436 volume=397.78090899293073 ns_energy=-11.635961168197829 last_walked_iter_clone=168368 energy=-11.635961168262217 stress="0.022594177530830345 3.201861620324713e-08 -7.254423029866179e-09 3.201861620324713e-08 0.02270856058691108 4.033799612611579e-09 -7.254423029866179e-09 4.033799612611579e-09 0.012424377874167607" pbc="T T F"
H        1.40307756       0.81006721       5.00000000        3       1.00000000       0.00000000       0.00000000       0.00000000       0.00000000       0.00000000       0.00000000
H        4.20923268       0.81006721       5.00000000        3       1.00000000       0.00000000       0.00000000       0.00000000       0.00000000       0.00000000       0.00000000
H        0.00000000       3.24026883       5.00000000        3       1.00000000       0.00000000       0.00000000       0.00000000       0.00000000       0.00000000       0.00000000
H        2.80615512       3.24026883       5.00000000        3       1.00000000       0.00000000       0.00000000       0.00000000       0.00000000       0.00000000       0.00000000
H        0.00000000       1.62013441       7.29121606        2       1.00000000       0.00000000       0.00000000       0.00000000       0.00000000       0.00000000       0.00000000
H        2.80615512       1.62013441       7.29121606        2       1.00000000       0.00000000       0.00000000       0.00000000       0.00000000       0.00000000       0.00000000
H        1.40307756       4.05033604       7.29121606        2       1.00000000       0.00000000       0.00000000       0.00000000       0.00000000       0.00000000       0.00000000
H        4.20923268       4.05033604       7.29121606        2       1.00000000       0.00000000       0.00000000       0.00000000       0.00000000       0.00000000       0.00000000
H        0.00000000       0.00000000       9.58243212        1       1.00000000       0.00000000       0.00000000       0.00000000       0.00000000       0.00000000       0.00000000
H        2.80615512       0.00000000       9.58243212        1       1.00000000       0.00000000       0.00000000       0.00000000       0.00000000       0.00000000       0.00000000
H        1.40307756       2.43020162       9.58243212        1       1.00000000       0.00000000       0.00000000       0.00000000       0.00000000       0.00000000       0.00000000
H        4.20923268       2.43020162       9.58243212        1       1.00000000       0.00000000       0.00000000       0.00000000       0.00000000       0.00000000       0.00000000
H        0.00992801       3.24041293      11.81076950        0       1.00000000       0.00000298       0.00000010      -0.00000483      -0.00000300      -0.00000859      -0.00000256
H       -0.00000204       4.86040637       2.77172650        0       1.00000000       0.00000184       0.00000008      -0.00000338      -0.00000615      -0.00001299       0.00000273
H        4.19931083       0.81021121      11.81077574        0       1.00000000       0.00000416       0.00000244       0.00000566      -0.00000021       0.00000615      -0.00000348
H        4.20923041       2.43020186       2.77172839        0       1.00000000      -0.00000243      -0.00000274       0.00000130      -0.00000989       0.00000713      -0.00000902
H        2.80615127       4.86040273       2.77172431        0       1.00000000      -0.00000164       0.00000113      -0.00000045       0.00000731       0.00000310      -0.00000493
H        1.40307655       2.43020351       2.77172644        0       1.00000000      -0.00000574       0.00000269      -0.00000263       0.00000473       0.00000038       0.00000335
18
Lattice="5.612310241546866 0.0 0.0 0.0 4.860403243099165 0.0 0.0 0.0 14.582432123328676" Properties=species:S:1:pos:R:3:tags:I:1:masses:R:1:momenta:R:3:forces:R:3 KEmax=23.26679191048647 iter=168436 volume=397.78090899293073 ns_energy=-11.635961168196642 last_walked_iter_clone=167984 energy=-11.635961168262217 stress="0.022594177530830345 3.201861620324713e-08 -7.254423029866179e-09 3.201861620324713e-08 0.02270856058691108 4.033799612611579e-09 -7.254423029866179e-09 4.033799612611579e-09 0.012424377874167607" pbc="T T F"
H        1.40307756       0.81006721       5.00000000        3       1.00000000       0.00000000       0.00000000       0.00000000       0.00000000       0.00000000       0.00000000
H        4.20923268       0.81006721       5.00000000        3       1.00000000       0.00000000       0.00000000       0.00000000       0.00000000       0.00000000       0.00000000
H        0.00000000       3.24026883       5.00000000        3       1.00000000       0.00000000       0.00000000       0.00000000       0.00000000       0.00000000       0.00000000
H        2.80615512       3.24026883       5.00000000        3       1.00000000       0.00000000       0.00000000       0.00000000       0.00000000       0.00000000       0.00000000
H        0.00000000       1.62013441       7.29121606        2       1.00000000       0.00000000       0.00000000       0.00000000       0.00000000       0.00000000       0.00000000
H        2.80615512       1.62013441       7.29121606        2       1.00000000       0.00000000       0.00000000       0.00000000       0.00000000       0.00000000       0.00000000
H        1.40307756       4.05033604       7.29121606        2       1.00000000       0.00000000       0.00000000       0.00000000       0.00000000       0.00000000       0.00000000
H        4.20923268       4.05033604       7.29121606        2       1.00000000       0.00000000       0.00000000       0.00000000       0.00000000       0.00000000       0.00000000
H        0.00000000       0.00000000       9.58243212        1       1.00000000       0.00000000       0.00000000       0.00000000       0.00000000       0.00000000       0.00000000
H        2.80615512       0.00000000       9.58243212        1       1.00000000       0.00000000       0.00000000       0.00000000       0.00000000       0.00000000       0.00000000
H        1.40307756       2.43020162       9.58243212        1       1.00000000       0.00000000       0.00000000       0.00000000       0.00000000       0.00000000       0.00000000
H        4.20923268       2.43020162       9.58243212        1       1.00000000       0.00000000       0.00000000       0.00000000       0.00000000       0.00000000       0.00000000
H        0.00992443       3.24041460      11.81077338        0       1.00000000      -0.00000231      -0.00000320       0.00000006      -0.00000300      -0.00000859      -0.00000256
H       -0.00000202       4.86040230       2.77172515        0       1.00000000      -0.00000056       0.00000607      -0.00000237      -0.00000615      -0.00001299       0.00000273
H        4.19930804       0.81021481      11.81077112        0       1.00000000       0.00000443       0.00000183      -0.00000062      -0.00000021       0.00000615      -0.00000348
H        4.20923544       2.43020311       2.77172493        0       1.00000000      -0.00000210       0.00000340      -0.00000187      -0.00000989       0.00000713      -0.00000902
H        2.80615320       4.86040351       2.77173103        0       1.00000000       0.00000081      -0.00000251      -0.00000179       0.00000731       0.00000310      -0.00000493
H        1.40307694       2.43019784       2.77172881        0       1.00000000       0.00000026       0.00000502      -0.00000144       0.00000473       0.00000038       0.00000335
18
Lattice="5.612310241546866 0.0 0.0 0.0 4.860403243099165 0.0 0.0 0.0 14.582432123328676" Properties=species:S:1:pos:R:3:tags:I:1:masses:R:1:momenta:R:3:forces:R:3 KEmax=23.26679191048647 iter=168436 volume=397.78090899293073 ns_energy=-11.635961168195408 last_walked_iter_clone=168296 energy=-11.635961168262217 stress="0.022594177530830345 3.201861620324713e-08 -7.254423029866179e-09 3.201861620324713e-08 0.02270856058691108 4.033799612611579e-09 -7.254423029866179e-09 4.033799612611579e-09 0.012424377874167607" pbc="T T F"
H        1.40307756       0.81006721       5.00000000        3       1.00000000       0.00000000       0.00000000       0.00000000       0.00000000       0.00000000       0.00000000
H        4.20923268       0.81006721       5.00000000        3       1.00000000       0.00000000       0.00000000       0.00000000       0.00000000       0.00000000       0.00000000
H        0.00000000       3.24026883       5.00000000        3       1.00000000       0.00000000       0.00000000       0.00000000       0.00000000       0.00000000       0.00000000
H        2.80615512       3.24026883       5.00000000        3       1.00000000       0.00000000       0.00000000       0.00000000       0.00000000       0.00000000       0.00000000
H        0.00000000       1.62013441       7.29121606        2       1.00000000       0.00000000       0.00000000       0.00000000       0.00000000       0.00000000       0.00000000
H        2.80615512       1.62013441       7.29121606        2       1.00000000       0.00000000       0.00000000       0.00000000       0.00000000       0.00000000       0.00000000
H        1.40307756       4.05033604       7.29121606        2       1.00000000       0.00000000       0.00000000       0.00000000       0.00000000       0.00000000       0.00000000
H        4.20923268       4.05033604       7.29121606        2       1.00000000       0.00000000       0.00000000       0.00000000       0.00000000       0.00000000       0.00000000
H        0.00000000       0.00000000       9.58243212        1       1.00000000       0.00000000       0.00000000       0.00000000       0.00000000       0.00000000       0.00000000
H        2.80615512       0.00000000       9.58243212        1       1.00000000       0.00000000       0.00000000       0.00000000       0.00000000       0.00000000       0.00000000
H        1.40307756       2.43020162       9.58243212        1       1.00000000       0.00000000       0.00000000       0.00000000       0.00000000       0.00000000       0.00000000
H        4.20923268       2.43020162       9.58243212        1       1.00000000       0.00000000       0.00000000       0.00000000       0.00000000       0.00000000       0.00000000
H        0.00992325       3.24041787      11.81077060        0       1.00000000      -0.00000130       0.00000052      -0.00000104      -0.00000300      -0.00000859      -0.00000256
H       -0.00000319       4.86040384       2.77172278        0       1.00000000       0.00000060      -0.00000005      -0.00000278      -0.00000615      -0.00001299       0.00000273
H        4.19930383       0.81021653      11.81077151        0       1.00000000       0.00000383       0.00000140      -0.00000040      -0.00000021       0.00000615      -0.00000348