17
Lattice="5.612310241546866 0.0 0.0 0.0 4.860403243099165 0.0 0.0 0.0 44.58243212332868" Properties=species:S:1:pos:R:3:tags:I:1:masses:R:1:momenta:R:3:forces:R:3 KEmax=21.974192359903892 iter=100239 volume=1216.1236359717223 set_wall=T ns_energy=-10.966666331691613 last_walked_iter_clone=100056 energy=-10.966666331725285 stress="0.02110660082382312 5.07766767637255e-11 1.531519371027853e-08 5.07766767637255e-11 0.021181013315524716 -5.296913273390828e-09 1.531519371027853e-08 -5.296913273390828e-09 0.011440214060732378" pbc="T T F"
H        1.40307756       0.81006721      20.00000000        3       1.00000000       0.00000000       0.00000000       0.00000000       0.00000000       0.00000000       0.00000000
H        4.20923268       0.81006721      20.00000000        3       1.00000000       0.00000000       0.00000000       0.00000000       0.00000000       0.00000000       0.00000000
H        0.00000000       3.24026883      20.00000000        3       1.00000000       0.00000000       0.00000000       0.00000000       0.00000000       0.00000000       0.00000000
H        2.80615512       3.24026883      20.00000000        3       1.00000000       0.00000000       0.00000000       0.00000000       0.00000000       0.00000000       0.00000000
H        0.00000000       1.62013441      22.29121606        2       1.00000000       0.00000000       0.00000000       0.00000000       0.00000000       0.00000000       0.00000000
H        2.80615512       1.62013441      22.29121606        2       1.00000000       0.00000000       0.00000000       0.00000000       0.00000000       0.00000000       0.00000000
H        1.40307756       4.05033604      22.29121606        2       1.00000000       0.00000000       0.00000000       0.00000000       0.00000000       0.00000000       0.00000000
H        4.20923268       4.05033604      22.29121606        2       1.00000000       0.00000000       0.00000000       0.00000000       0.00000000       0.00000000       0.00000000
H        0.00000000       0.00000000      24.58243212        1       1.00000000       0.00000000       0.00000000       0.00000000       0.00000000       0.00000000       0.00000000
H        2.80615512       0.00000000      24.58243212        1       1.00000000       0.00000000       0.00000000       0.00000000       0.00000000       0.00000000       0.00000000
H        1.40307756       2.43020162      24.58243212        1       1.00000000       0.00000000       0.00000000       0.00000000       0.00000000       0.00000000       0.00000000
H        4.20923268       2.43020162      24.58243212        1       1.00000000       0.00000000       0.00000000       0.00000000       0.00000000       0.00000000       0.00000000
H        0.00736583       1.61597152      26.79633443        0       1.00000000      -0.00000322       0.00000141       0.00000365       0.00000064       0.00000054      -0.00000288
H        2.79879297       1.61597050      26.79633352        0       1.00000000      -0.00000044       0.00000185      -0.00000119       0.00000159       0.00000436       0.00000561
H        4.20923411       2.43158508      29.01503027        0       1.00000000       0.00000028       0.00000043       0.00000299      -0.00000113      -0.00000019      -0.00000042
H        4.20923472       4.06693288      26.80105976        0       1.00000000      -0.00000224      -0.00000066      -0.00000049       0.00000453      -0.00000213      -0.00000377
H        1.40307974       4.04117319      26.83224891        0       1.00000000       0.00000111      -0.00000284      -0.00000102      -0.00000610      -0.00000226      -0.00000016
17
Lattice="5.612310241546866 0.0 0.0 0.0 4.860403243099165 0.0 0.0 0.0 44.58243212332868" Properties=species:S:1:pos:R:3:tags:I:1:masses:R:1:momenta:R:3:forces:R:3 KEmax=21.974192359903892 iter=100239 volume=1216.1236359717223 set_wall=T ns_energy=-10.966666331691918 last_walked_iter_clone=99865 energy=-10.966666331725285 stress="0.02110660082382312 5.07766767637255e-11 1.531519371027853e-08 5.07766767637255e-11 0.021181013315524716 -5.296913273390828e-09 1.531519371027853e-08 -5.296913273390828e-09 0.011440214060732378" pbc="T T F"
H        1.40307756       0.81006721      20.00000000        3       1.00000000       0.00000000       0.00000000       0.00000000       0.00000000       0.00000000       0.00000000
H        4.20923268       0.81006721      20.00000000        3       1.00000000       0.00000000       0.00000000       0.00000000       0.00000000       0.00000000       0.00000000
H        0.00000000       3.24026883      20.00000000        3       1.00000000       0.00000000       0.00000000       0.00000000       0.00000000       0.00000000       0.00000000
H        2.80615512       3.24026883      20.00000000        3       1.00000000       0.00000000       0.00000000       0.00000000       0.00000000       0.00000000       0.00000000
H        0.00000000       1.62013441      22.29121606        2       1.00000000       0.00000000       0.00000000       0.00000000       0.00000000       0.00000000       0.00000000
H        2.80615512       1.62013441      22.29121606        2       1.00000000       0.00000000       0.00000000       0.00000000       0.00000000       0.00000000       0.00000000
H        1.40307756       4.05033604      22.29121606        2       1.00000000       0.00000000       0.00000000       0.00000000       0.00000000       0.00000000       0.00000000
H        4.20923268       4.05033604      22.29121606        2       1.00000000       0.00000000       0.00000000       0.00000000       0.00000000       0.00000000       0.00000000
H        0.00000000       0.00000000      24.58243212        1       1.00000000       0.00000000       0.00000000       0.00000000       0.00000000       0.00000000       0.00000000
H        2.80615512       0.00000000      24.58243212        1       1.00000000       0.00000000       0.00000000       0.00000000       0.00000000       0.00000000       0.00000000
H        1.40307756       2.43020162      24.58243212        1       1.00000000       0.00000000       0.00000000       0.00000000       0.00000000       0.00000000       0.00000000
H        4.20923268       2.43020162      24.58243212        1       1.00000000       0.00000000       0.00000000       0.00000000       0.00000000       0.00000000       0.00000000
H        0.00736444       1.61597174      26.79633510        0       1.00000000      -0.00000269       0.00000261      -0.00000045       0.00000064       0.00000054      -0.00000288
H        2.79878989       1.61596992      26.79633759        0       1.00000000      -0.00000321       0.00000201      -0.00000056       0.00000159       0.00000436       0.00000561
H        4.20923470       2.43158328      29.01503366        0       1.00000000       0.00000077       0.00000216       0.00000017      -0.00000113      -0.00000019      -0.00000042
H        4.20923134       4.06693124      26.80105995        0       1.00000000      -0.00000176       0.00000042       0.00000140       0.00000453      -0.00000213      -0.00000377
H        1.40307797       4.04117421      26.83224906        0       1.00000000       0.00000108      -0.00000049       0.00000312      -0.00000610      -0.00000226      -0.00000016
17
Lattice="5.612310241546866 0.0 0.0 0.0 4.860403243099165 0.0 0.0 0.0 44.58243212332868" Properties=species:S:1:pos:R:3:tags:I:1:masses:R:1:momenta:R:3:forces:R:3 KEmax=21.974192359903892 iter=100239 volume=1216.1236359717223 set_wall=T ns_energy=-10.966666331692146 last_walked_iter_clone=100051 energy=-10.966666331725285 stress="0.02110660082382312 5.07766767637255e-11 1.531519371027853e-08 5.07766767637255e-11 0.021181013315524716 -5.296913273390828e-09 1.531519371027853e-08 -5.296913273390828e-09 0.011440214060732378" pbc="T T F"
H        1.40307756       0.81006721      20.00000000        3       1.00000000       0.00000000       0.00000000       0.00000000       0.00000000       0.00000000       0.00000000
H        4.20923268       0.81006721      20.00000000        3       1.00000000       0.00000000       0.00000000       0.00000000       0.00000000       0.00000000       0.00000000
H        0.00000000       3.24026883      20.00000000        3       1.00000000       0.00000000       0.00000000       0.00000000       0.00000000       0.00000000       0.00000000
H        2.80615512       3.24026883      20.00000000        3       1.00000000       0.00000000       0.00000000       0.00000000       0.00000000       0.00000000       0.00000000
H        0.00000000       1.62013441      22.29121606        2       1.00000000       0.00000000       0.00000000       0.00000000       0.00000000       0.00000000       0.00000000
H        2.80615512       1.62013441      22.29121606        2       1.00000000       0.00000000       0.00000000       0.00000000       0.00000000       0.00000000       0.00000000
H        1.40307756       4.05033604      22.29121606        2       1.00000000       0.00000000       0.00000000       0.00000000       0.00000000       0.00000000       0.00000000
H        4.20923268       4.05033604      22.29121606        2       1.00000000       0.00000000       0.00000000       0.00000000       0.00000000       0.00000000       0.00000000
H        0.00000000       0.00000000      24.58243212        1       1.00000000       0.00000000       0.00000000       0.00000000       0.00000000       0.00000000       0.00000000
H        2.80615512       0.00000000      24.58243212        1       1.00000000       0.00000000       0.00000000       0.00000000       0.00000000       0.00000000       0.00000000
H        1.40307756       2.43020162      24.58243212        1       1.00000000       0.00000000       0.00000000       0.00000000       0.00000000       0.00000000       0.00000000
H        4.20923268       2.43020162      24.58243212        1       1.00000000       0.00000000       0.00000000       0.00000000       0.00000000       0.00000000       0.00000000
H        0.00736293       1.61597359      26.79633641        0       1.00000000      -0.00000466      -0.00000101       0.00000205       0.00000064       0.00000054      -0.00000288
H        2.79879012       1.61597215      26.79633473        0       1.00000000       0.00000163       0.00000192       0.00000061       0.00000159       0.00000436       0.00000561
H        4.20923391       2.43158540      29.01503365        0       1.00000000      -0.00000148      -0.00000323      -0.00000103      -0.00000113      -0.00000019      -0.00000042
H        4.20923373       4.06693452      26.80106091        0       1.00000000       0.00000101       0.00000146      -0.00000395       0.00000453      -0.00000213      -0.00000377
H        1.40307841       4.04117609      26.83224964        0       1.00000000       0.00000046       0.00000133      -0.00000050      -0.00000610      -0.00000226      -0.00000016
17
Lattice="5.612310241546866 0.0 0.0 0.0 4.860403243099165 0.0 0.0 0.0 44.58243212332868" Properties=species:S:1:pos:R:3:tags:I:1:masses:R:1:momenta:R:3:forces:R:3 KEmax=21.974192359903892 iter=100239 volume=1216.1236359717223 set_wall=T ns_energy=-10.966666331691064 last_walked_iter_clone=100130 energy=-10.966666331725285 stress="0.02110660082382312 5.07766767637255e-11 1.531519371027853e-08 5.07766767637255e-11 0.021181013315524716 -5.296913273390828e-09 1.531519371027853e-08 -5.296913273390828e-09 0.011440214060732378" pbc="T T F"
H        1.40307756       0.81006721      20.00000000        3       1.00000000       0.00000000       0.00000000       0.00000000       0.00000000       0.00000000       0.00000000
H        4.20923268       0.81006721      20.00000000        3       1.00000000       0.00000000       0.00000000       0.00000000       0.00000000       0.00000000       0.00000000
H        0.00000000       3.24026883      20.00000000        3       1.00000000       0.00000000       0.00000000       0.00000000       0.00000000       0.00000000       0.00000000
H        2.80615512       3.24026883      20.00000000        3       1.00000000       0.00000000       0.00000000       0.00000000       0.00000000       0.00000000       0.00000000
H        0.00000000       1.62013441      22.29121606        2       1.00000000       0.00000000       0.00000000       0.00000000       0.00000000       0.00000000       0.00000000
H        2.80615512       1.62013441      22.29121606        2       1.00000000       0.00000000       0.00000000       0.00000000       0.00000000       0.00000000       0.00000000
H        1.40307756       4.05033604      22.29121606        2       1.00000000       0.00000000       0.00000000       0.00000000       0.00000000       0.00000000       0.00000000
H        4.20923268       4.05033604      22.29121606        2       1.00000000       0.00000000       0.00000000       0.00000000       0.00000000       0.00000000       0.00000000
H        0.00000000       0.00000000      24.58243212        1       1.00000000       0.00000000       0.00000000       0.00000000       0.00000000       0.00000000       0.00000000
H        2.80615512       0.00000000      24.58243212        1       1.00000000       0.00000000       0.00000000       0.00000000       0.00000000       0.00000000       0.00000000
H        1.40307756       2.43020162      24.58243212        1       1.00000000       0.00000000       0.00000000       0.00000000       0.00000000       0.00000000       0.00000000
H        4.20923268       2.43020162      24.58243212        1       1.00000000       0.00000000       0.00000000       0.00000000       0.00000000       0.00000000       0.00000000
H        0.00736560       1.61597166      26.79633683        0       1.00000000       0.00000131       0.00000411       0.00000068       0.00000064       0.00000054      -0.00000288
H        2.79879322       1.61597216      26.79633410        0       1.00000000       0.00000383      -0.00000140      -0.00000303       0.00000159       0.00000436       0.00000561
H        4.20923550       2.43158791      29.01503313        0       1.00000000       0.00000200      -0.00000106      -0.00000211      -0.00000113      -0.00000019      -0.00000042
H        4.20923245       4.06693489      26.80106116        0       1.00000000      -0.00000261       0.00000149      -0.00000023       0.00000453      -0.00000213      -0.00000377
H        1.40307899       4.04117513      26.83224831        0       1.00000000      -0.00000097       0.00000072      -0.00000018      -0.00000610      -0.00000226      -0.00000016
17
Lattice="5.612310241546866 0.0 0.0 0.0 4.860403243099165 0.0 0.0 0.0 44.58243212332868" Properties=species:S:1:pos:R:3:tags:I:1:masses:R:1:momenta:R:3:forces:R:3 KEmax=21.974192359903892 iter=100239 volume=1216.1236359717223 set_wall=T ns_energy=-10.966666331691172 last_walked_iter_clone=100194 energy=-10.966666331725285 stress="0.02110660082382312 5.07766767637255e-11 1.531519371027853e-08 5.07766767637255e-11 0.021181013315524716 -5.296913273390828e-09 1.531519371027853e-08 -5.296913273390828e-09 0.011440214060732378" pbc="T T F"
H        1.40307756       0.81006721      20.00000000        3       1.00000000       0.00000000       0.00000000       0.00000000       0.00000000       0.00000000       0.00000000
H        4.20923268       0.81006721      20.00000000        3       1.00000000       0.00000000       0.00000000       0.00000000       0.00000000       0.00000000       0.00000000
H        0.00000000       3.24026883      20.00000000        3       1.00000000       0.00000000       0.00000000       0.00000000       0.00000000       0.00000000       0.00000000
H        2.80615512       3.24026883      20.00000000        3       1.00000000       0.00000000       0.00000000       0.00000000       0.00000000       0.00000000       0.00000000
H        0.00000000       1.62013441      22.29121606        2       1.00000000       0.00000000       0.00000000       0.00000000       0.00000000       0.00000000       0.00000000
H        2.80615512       1.62013441      22.29121606        2       1.00000000       0.00000000       0.00000000       0.00000000       0.00000000       0.00000000       0.00000000
H        1.40307756       4.05033604      22.29121606        2       1.00000000       0.00000000       0.00000000       0.00000000       0.00000000       0.00000000       0.00000000
H        4.20923268       4.05033604      22.29121606        2       1.00000000       0.00000000       0.00000000       0.00000000       0.00000000       0.00000000       0.00000000
H        0.00000000       0.00000000      24.58243212        1       1.00000000       0.00000000       0.00000000       0.00000000       0.00000000       0.00000000       0.00000000
H        2.80615512       0.00000000      24.58243212        1       1.00000000       0.00000000       0.00000000       0.00000000       0.00000000       0.00000000       0.00000000
H        1.40307756       2.43020162      24.58243212        1       1.00000000       0.00000000       0.00000000       0.00000000       0.00000000       0.00000000       0.00000000
H        4.20923268       2.43020162      24.58243212        1       1.00000000       0.00000000       0.00000000       0.00000000       0.00000000       0.00000000       0.00000000
H        0.00736454       1.61597344      26.79633487        0       1.00000000      -0.00000071       0.00000121      -0.00000084       0.00000064       0.00000054      -0.00000288
H        2.79879222       1.61596956      26.79633664        0       1.00000000      -0.00000068      -0.00000251       0.00000042       0.00000159       0.00000436       0.00000561
H        4.20923461       2.43158841      29.01503117        0       1.00000000      -0.00000164       0.00000241      -0.00000390      -0.00000113      -0.00000019      -0.00000042
H        4.20923225       4.06693501      26.80105948        0       1.00000000      -0.00000043       0.00000377      -0.00000126       0.00000453      -0.00000213      -0.00000377
H        1.40307816       4.04117553      26.83224875        0       1.00000000      -0.00000003       0.00000100       0.00000129      -0.00000610      -0.00000226      -0.00000016
17
Lattice="5.612310241546866 0.0 0.0 0.0 4.860403243099165 0.0 0.0 0.0 44.58243212332868" Properties=species:S:1:pos:R:3:tags:I:1:masses:R:1:momenta:R:3:forces:R:3 KEmax=21.974192359903892 iter=100239 volume=1216.1236359717223 set_wall=T ns_energy=-10.966666331690858 last_walked_iter_clone=100003 energy=-10.966666331725285 stress="0.02110660082382312 5.07766767637255e-11 1.531519371027853e-08 5.07766767637255e-11 0.021181013315524716 -5.296913273390828e-09 1.531519371027853e-08 -5.296913273390828e-09 0.011440214060732378" pbc="T T F"
H        1.40307756       0.81006721      20.00000000        3       1.00000000       0.00000000       0.00000000       0.00000000       0.00000000       0.00000000       0.00000000
H        4.20923268       0.81006721      20.00000000        3       1.00000000       0.00000000       0.00000000       0.00000000       0.00000000       0.00000000       0.00000000
H        0.00000000       3.24026883      20.00000000        3       1.00000000       0.00000000       0.00000000       0.00000000       0.00000000       0.00000000       0.00000000
H        2.80615512       3.24026883      20.00000000        3       1.00000000       0.00000000       0.00000000       0.00000000       0.00000000       0.00000000       0.00000000
H        0.00000000       1.62013441      22.29121606        2       1.00000000       0.00000000       0.00000000       0.00000000       0.00000000       0.00000000       0.00000000
H        2.80615512       1.62013441      22.29121606        2       1.00000000       0.00000000       0.00000000       0.00000000       0.00000000       0.00000000       0.00000000
H        1.40307756       4.05033604      22.29121606        2       1.00000000       0.00000000       0.00000000       0.00000000       0.00000000       0.00000000       0.00000000
H        4.20923268       4.05033604      22.29121606        2       1.00000000       0.00000000       0.00000000       0.00000000       0.00000000       0.00000000       0.00000000
H        0.00000000       0.00000000      24.58243212        1       1.00000000       0.00000000       0.00000000       0.00000000       0.00000000       0.00000000       0.00000000
H        2.80615512       0.00000000      24.58243212        1       1.00000000       0.00000000       0.00000000       0.00000000       0.00000000       0.00000000       0.00000000
H        1.40307756       2.43020162      24.58243212        1       1.00000000       0.00000000       0.00000000       0.00000000       0.00000000       0.00000000       0.00000000
H        4.20923268       2.43020162      24.58243212        1       1.00000000       0.00000000       0.00000000       0.00000000       0.00000000       0.00000000       0.00000000
H        0.00736248       1.61597195      26.79633563        0       1.00000000       0.00000397       0.00000118      -0.00000074       0.00000064       0.00000054      -0.00000288
H        2.79878695       1.61597128      26.79633369        0       1.00000000      -0.00000252      -0.00000092      -0.00000393       0.00000159       0.00000436       0.00000561
H        4.20922745       2.43158104      29.01503326        0       1.00000000       0.00000010       0.00000097      -0.00000154      -0.00000113      -0.00000019      -0.00000042
H        4.20923181       4.06693426      26.80106129        0       1.00000000      -0.00000035      -0.00000018      -0.00000122       0.00000453      -0.00000213      -0.00000377
H        1.40307659       4.04117405      26.83224930        0       1.00000000      -0.00000086       0.00000141       0.00000013      -0.00000610      -0.00000226      -0.00000016
17
Lattice="5.612310241546866 0.0 0.0 0.0 4.860403243099165 0.0 0.0 0.0 44.58243212332868" Properties=species:S:1:pos:R:3:tags:I:1:masses:R:1:momenta:R:3:forces:R:3 KEmax=21.974192359903892 iter=100239 volume=1216.1236359717223 set_wall=T ns_energy=-10.966666331693327 last_walked_iter_clone=100191 energy=-10.966666331725285 stress="0.02110660082382312 5.07766767637255e-11 1.531519371027853e-08 5.07766767637255e-11 0.021181013315524716 -5.296913273390828e-09 1.531519371027853e-08 -5.296913273390828e-09 0.011440214060732378" pbc="T T F"
H        1.40307756       0.81006721      20.00000000        3       1.00000000       0.00000000       0.00000000       0.00000000       0.00000000       0.00000000       0.00000000
H        4.20923268       0.81006721      20.00000000        3       1.00000000       0.00000000       0.00000000       0.00000000       0.00000000       0.00000000       0.00000000
H        0.00000000       3.24026883      20.00000000        3       1.00000000       0.00000000       0.00000000       0.00000000       0.00000000       0.00000000       0.00000000
H        2.80615512       3.24026883      20.00000000        3       1.00000000       0.00000000       0.00000000       0.00000000       0.00000000       0.00000000       0.00000000
H        0.00000000       1.62013441      22.29121606        2       1.00000000       0.00000000       0.00000000       0.00000000       0.00000000       0.00000000       0.00000000
H        2.80615512       1.62013441      22.29121606        2       1.00000000       0.00000000       0.00000000       0.00000000       0.00000000       0.00000000       0.00000000
H        1.40307756       4.05033604      22.29121606        2       1.00000000       0.00000000       0.00000000       0.00000000       0.00000000       0.00000000       0.00000000
H        4.20923268       4.05033604      22.29121606        2       1.00000000       0.00000000       0.00000000       0.00000000       0.00000000       0.00000000       0.00000000
H        0.00000000       0.00000000      24.58243212        1       1.00000000       0.00000000       0.00000000       0.00000000       0.00000000       0.00000000       0.00000000
H        2.80615512       0.00000000      24.58243212        1       1.00000000       0.00000000       0.00000000       0.00000000       0.00000000       0.00000000       0.00000000
H        1.40307756       2.43020162      24.58243212        1       1.00000000       0.00000000       0.00000000       0.00000000       0.00000000       0.00000000       0.00000000
H        4.20923268       2.43020162      24.58243212        1       1.00000000       0.00000000       0.00000000       0.00000000       0.00000000       0.00000000       0.00000000
H        0.00736321       1.61597397      26.79633609        0       1.00000000      -0.00000001      -0.00000032       0.00000034       0.00000064       0.00000054      -0.00000288
H        2.79879104       1.61597451      26.79633579        0       1.00000000      -0.00000117       0.00000067      -0.00000142       0.00000159       0.00000436       0.00000561
H        4.20923121       2.43158587      29.01503550        0       1.00000000      -0.00000010      -0.00000082      -0.00000147      -0.00000113      -0.00000019      -0.00000042
H        4.20923121       4.06693559      26.80106276        0       1.00000000       0.00000446      -0.00000071       0.00000051       0.00000453      -0.00000213      -0.00000377
H        1.40307715       4.04117577      26.83224974        0       1.00000000      -0.00000225      -0.00000373      -0.00000251      -0.00000610      -0.00000226      -0.00000016
17
Lattice="5.612310241546866 0.0 0.0 0.0 4.860403243099165 0.0 0.0 0.0 44.58243212332868" Properties=species:S:1:pos:R:3:tags:I:1:masses:R:1:momenta:R:3:forces:R:3 KEmax=21.974192359903892 iter=100239 volume=1216.1236359717223 set_wall=T ns_energy=-10.966666331691792 last_walked_iter_clone=100202 energy=-10.966666331725285 stress="0.02110660082382312 5.07766767637255e-11 1.531519371027853e-08 5.07766767637255e-11 0.021181013315524716 -5.296913273390828e-09 1.531519371027853e-08 -5.296913273390828e-09 0.011440214060732378" pbc="T T F"
H        1.40307756       0.81006721      20.00000000        3       1.00000000       0.00000000       0.00000000       0.00000000       0.00000000       0.00000000       0.00000000
H        4.20923268       0.81006721      20.00000000        3       1.00000000       0.00000000       0.00000000       0.00000000       0.00000000       0.00000000       0.00000000
H        0.00000000       3.24026883      20.00000000        3       1.00000000       0.00000000       0.00000000       0.00000000       0.00000000       0.00000000       0.00000000
H        2.80615512       3.24026883      20.00000000        3       1.00000000       0.00000000       0.00000000       0.00000000       0.00000000       0.00000000       0.00000000
H        0.00000000       1.62013441      22.29121606        2       1.00000000       0.00000000       0.00000000       0.00000000       0.00000000       0.00000000       0.00000000
H        2.80615512       1.62013441      22.29121606        2       1.00000000       0.00000000       0.00000000       0.00000000       0.00000000       0.00000000       0.00000000
H        1.40307756       4.05033604      22.29121606        2       1.00000000       0.00000000       0.00000000       0.00000000       0.00000000       0.00000000       0.00000000
H        4.20923268       4.05033604      22.29121606        2       1.00000000       0.00000000       0.00000000       0.00000000       0.00000000       0.00000000       0.00000000
H        0.00000000       0.00000000      24.58243212        1       1.00000000       0.00000000       0.00000000       0.00000000       0.00000000       0.00000000       0.00000000
H        2.80615512       0.00000000      24.58243212        1       1.00000000       0.00000000       0.00000000       0.00000000       0.00000000       0.00000000       0.00000000
H        1.40307756       2.43020162      24.58243212        1       1.00000000       0.00000000       0.00000000       0.00000000       0.00000000       0.00000000       0.00000000
H        4.20923268       2.43020162      24.58243212        1       1.00000000       0.00000000       0.00000000       0.00000000       0.00000000       0.00000000       0.00000000
H        0.00736453       1.61597228      26.79633674        0       1.00000000      -0.00000190      -0.00000244       0.00000289       0.00000064       0.00000054      -0.00000288
H        2.79878981       1.61597146      26.79633634        0       1.00000000       0.00000160       0.00000034       0.00000102       0.00000159       0.00000436       0.00000561
H        4.20923300       2.43158416      29.01503505        0       1.00000000       0.00000218       0.00000165       0.00000077      -0.00000113      -0.00000019      -0.00000042
H        4.20923432       4.06693610      26.80106194        0       1.00000000      -0.00000059      -0.00000143       0.00000040       0.00000453      -0.00000213      -0.00000377
H        1.40307856       4.04117524      26.83224738        0       1.00000000      -0.00000170      -0.00000190       0.00000286      -0.00000610      -0.00000226      -0.00000016
17
Lattice="5.612310241546866 0.0 0.0 0.0 4.860403243099165 0.0 0.0 0.0 44.58243212332868" Properties=species:S:1:pos:R:3:tags:I:1:masses:R:1:momenta:R:3:forces:R:3 KEmax=21.974192359903892 iter=100239 volume=1216.1236359717223 set_wall=T ns_energy=-10.9666663316917 last_walked_iter_clone=100176 energy=-10.966666331725285 stress="0.02110660082382312 5.07766767637255e-11 1.531519371027853e-08 5.07766767637255e-11 0.021181013315524716 -5.296913273390828e-09 1.531519371027853e-08 -5.296913273390828e-09 0.011440214060732378" pbc="T T F"
H        1.40307756       0.81006721      20.00000000        3       1.00000000       0.00000000       0.00000000       0.00000000       0.00000000       0.00000000       0.00000000
H        4.20923268       0.81006721      20.00000000        3       1.00000000       0.00000000       0.00000000       0.00000000       0.00000000       0.00000000       0.00000000