17
Lattice="5.612310241546866 0.0 0.0 0.0 4.860403243099165 0.0 0.0 0.0 44.58243212332868" Properties=species:S:1:pos:R:3:tags:I:1:masses:R:1:momenta:R:3:forces:R:3 KEmax=21.974192359903892 iter=84327 volume=1216.1236359717223 set_wall=T ns_energy=-10.966666331016128 last_walked_iter_clone=84287 energy=-10.966666331424598 stress="0.021106545868972523 -2.2140836397414027e-10 4.2040605189590354e-08 -2.2140836397414027e-10 0.021181023043187135 -4.288572217021867e-08 4.2040605189590354e-08 -4.288572217021867e-08 0.01144008907642959" pbc="T T F"
H        1.40307756       0.81006721      20.00000000        3       1.00000000       0.00000000       0.00000000       0.00000000       0.00000000       0.00000000       0.00000000
H        4.20923268       0.81006721      20.00000000        3       1.00000000       0.00000000       0.00000000       0.00000000       0.00000000       0.00000000       0.00000000
H        0.00000000       3.24026883      20.00000000        3       1.00000000       0.00000000       0.00000000       0.00000000       0.00000000       0.00000000       0.00000000
H        2.80615512       3.24026883      20.00000000        3       1.00000000       0.00000000       0.00000000       0.00000000       0.00000000       0.00000000       0.00000000
H        0.00000000       1.62013441      22.29121606        2       1.00000000       0.00000000       0.00000000       0.00000000       0.00000000       0.00000000       0.00000000
H        2.80615512       1.62013441      22.29121606        2       1.00000000       0.00000000       0.00000000       0.00000000       0.00000000       0.00000000       0.00000000
H        1.40307756       4.05033604      22.29121606        2       1.00000000       0.00000000       0.00000000       0.00000000       0.00000000       0.00000000       0.00000000
H        4.20923268       4.05033604      22.29121606        2       1.00000000       0.00000000       0.00000000       0.00000000       0.00000000       0.00000000       0.00000000
H        0.00000000       0.00000000      24.58243212        1       1.00000000       0.00000000       0.00000000       0.00000000       0.00000000       0.00000000       0.00000000
H        2.80615512       0.00000000      24.58243212        1       1.00000000       0.00000000       0.00000000       0.00000000       0.00000000       0.00000000       0.00000000
H        1.40307756       2.43020162      24.58243212        1       1.00000000       0.00000000       0.00000000       0.00000000       0.00000000       0.00000000       0.00000000
H        4.20923268       2.43020162      24.58243212        1       1.00000000       0.00000000       0.00000000       0.00000000       0.00000000       0.00000000       0.00000000
H        0.00735678       1.61596581      26.79633136        0       1.00000000      -0.00000496       0.00001198      -0.00000141       0.00000594      -0.00000242      -0.00001113
H        2.79878745       1.61596332      26.79633710        0       1.00000000      -0.00001130      -0.00000646       0.00000007       0.00001877      -0.00002870       0.00001089
H        4.20923238       2.43158612      29.01503095        0       1.00000000       0.00001047      -0.00000657       0.00000318      -0.00000371       0.00000483       0.00000007
H        4.20922630       4.06693166      26.80106050        0       1.00000000      -0.00000286       0.00000995      -0.00001624      -0.00001460       0.00000464       0.00000418
H        1.40307545       4.04116704      26.83224725        0       1.00000000      -0.00000565       0.00000732      -0.00000850      -0.00000720       0.00002075       0.00000850
17
Lattice="5.612310241546866 0.0 0.0 0.0 4.860403243099165 0.0 0.0 0.0 44.58243212332868" Properties=species:S:1:pos:R:3:tags:I:1:masses:R:1:momenta:R:3:forces:R:3 KEmax=21.974192359903892 iter=84327 volume=1216.1236359717223 set_wall=T ns_energy=-10.966666331031945 last_walked_iter_clone=84132 energy=-10.966666331424598 stress="0.021106545868972523 -2.2140836397414027e-10 4.2040605189590354e-08 -2.2140836397414027e-10 0.021181023043187135 -4.288572217021867e-08 4.2040605189590354e-08 -4.288572217021867e-08 0.01144008907642959" pbc="T T F"
H        1.40307756       0.81006721      20.00000000        3       1.00000000       0.00000000       0.00000000       0.00000000       0.00000000       0.00000000       0.00000000
H        4.20923268       0.81006721      20.00000000        3       1.00000000       0.00000000       0.00000000       0.00000000       0.00000000       0.00000000       0.00000000
H        0.00000000       3.24026883      20.00000000        3       1.00000000       0.00000000       0.00000000       0.00000000       0.00000000       0.00000000       0.00000000
H        2.80615512       3.24026883      20.00000000        3       1.00000000       0.00000000       0.00000000       0.00000000       0.00000000       0.00000000       0.00000000
H        0.00000000       1.62013441      22.29121606        2       1.00000000       0.00000000       0.00000000       0.00000000       0.00000000       0.00000000       0.00000000
H        2.80615512       1.62013441      22.29121606        2       1.00000000       0.00000000       0.00000000       0.00000000       0.00000000       0.00000000       0.00000000
H        1.40307756       4.05033604      22.29121606        2       1.00000000       0.00000000       0.00000000       0.00000000       0.00000000       0.00000000       0.00000000
H        4.20923268       4.05033604      22.29121606        2       1.00000000       0.00000000       0.00000000       0.00000000       0.00000000       0.00000000       0.00000000
H        0.00000000       0.00000000      24.58243212        1       1.00000000       0.00000000       0.00000000       0.00000000       0.00000000       0.00000000       0.00000000
H        2.80615512       0.00000000      24.58243212        1       1.00000000       0.00000000       0.00000000       0.00000000       0.00000000       0.00000000       0.00000000
H        1.40307756       2.43020162      24.58243212        1       1.00000000       0.00000000       0.00000000       0.00000000       0.00000000       0.00000000       0.00000000
H        4.20923268       2.43020162      24.58243212        1       1.00000000       0.00000000       0.00000000       0.00000000       0.00000000       0.00000000       0.00000000
H        0.00736584       1.61597480      26.79633031        0       1.00000000       0.00000463       0.00000176      -0.00000328       0.00000594      -0.00000242      -0.00001113
H        2.79879052       1.61597569      26.79633749        0       1.00000000       0.00000341       0.00000677      -0.00000223       0.00001877      -0.00002870       0.00001089
H        4.20925070       2.43159118      29.01503459        0       1.00000000       0.00001027       0.00000257      -0.00000852      -0.00000371       0.00000483       0.00000007
H        4.20922306       4.06693825      26.80106004        0       1.00000000       0.00000301      -0.00001176      -0.00000272      -0.00001460       0.00000464       0.00000418
H        1.40306942       4.04117501      26.83224837        0       1.00000000       0.00000583      -0.00001949       0.00000863      -0.00000720       0.00002075       0.00000850
17
Lattice="5.612310241546866 0.0 0.0 0.0 4.860403243099165 0.0 0.0 0.0 44.58243212332868" Properties=species:S:1:pos:R:3:tags:I:1:masses:R:1:momenta:R:3:forces:R:3 KEmax=21.974192359903892 iter=84327 volume=1216.1236359717223 set_wall=T ns_energy=-10.96666633102412 last_walked_iter_clone=84215 energy=-10.966666331424598 stress="0.021106545868972523 -2.2140836397414027e-10 4.2040605189590354e-08 -2.2140836397414027e-10 0.021181023043187135 -4.288572217021867e-08 4.2040605189590354e-08 -4.288572217021867e-08 0.01144008907642959" pbc="T T F"
H        1.40307756       0.81006721      20.00000000        3       1.00000000       0.00000000       0.00000000       0.00000000       0.00000000       0.00000000       0.00000000
H        4.20923268       0.81006721      20.00000000        3       1.00000000       0.00000000       0.00000000       0.00000000       0.00000000       0.00000000       0.00000000
H        0.00000000       3.24026883      20.00000000        3       1.00000000       0.00000000       0.00000000       0.00000000       0.00000000       0.00000000       0.00000000
H        2.80615512       3.24026883      20.00000000        3       1.00000000       0.00000000       0.00000000       0.00000000       0.00000000       0.00000000       0.00000000
H        0.00000000       1.62013441      22.29121606        2       1.00000000       0.00000000       0.00000000       0.00000000       0.00000000       0.00000000       0.00000000
H        2.80615512       1.62013441      22.29121606        2       1.00000000       0.00000000       0.00000000       0.00000000       0.00000000       0.00000000       0.00000000
H        1.40307756       4.05033604      22.29121606        2       1.00000000       0.00000000       0.00000000       0.00000000       0.00000000       0.00000000       0.00000000
H        4.20923268       4.05033604      22.29121606        2       1.00000000       0.00000000       0.00000000       0.00000000       0.00000000       0.00000000       0.00000000
H        0.00000000       0.00000000      24.58243212        1       1.00000000       0.00000000       0.00000000       0.00000000       0.00000000       0.00000000       0.00000000
H        2.80615512       0.00000000      24.58243212        1       1.00000000       0.00000000       0.00000000       0.00000000       0.00000000       0.00000000       0.00000000
H        1.40307756       2.43020162      24.58243212        1       1.00000000       0.00000000       0.00000000       0.00000000       0.00000000       0.00000000       0.00000000
H        4.20923268       2.43020162      24.58243212        1       1.00000000       0.00000000       0.00000000       0.00000000       0.00000000       0.00000000       0.00000000
H        0.00736258       1.61596721      26.79633245        0       1.00000000       0.00000860       0.00000384       0.00001062       0.00000594      -0.00000242      -0.00001113
H        2.79878546       1.61596730      26.79633683        0       1.00000000       0.00000282       0.00000527      -0.00000290       0.00001877      -0.00002870       0.00001089
H        4.20923646       2.43157889      29.01504233        0       1.00000000       0.00001214       0.00000037      -0.00001456      -0.00000371       0.00000483       0.00000007
H        4.20923485       4.06693235      26.80106650        0       1.00000000       0.00000467      -0.00000943       0.00000269      -0.00001460       0.00000464       0.00000418
H        1.40307704       4.04117563      26.83224677        0       1.00000000       0.00000561       0.00000683      -0.00000612      -0.00000720       0.00002075       0.00000850
17
Lattice="5.612310241546866 0.0 0.0 0.0 4.860403243099165 0.0 0.0 0.0 44.58243212332868" Properties=species:S:1:pos:R:3:tags:I:1:masses:R:1:momenta:R:3:forces:R:3 KEmax=21.974192359903892 iter=84327 volume=1216.1236359717223 set_wall=T ns_energy=-10.966666331006863 last_walked_iter_clone=84252 energy=-10.966666331424598 stress="0.021106545868972523 -2.2140836397414027e-10 4.2040605189590354e-08 -2.2140836397414027e-10 0.021181023043187135 -4.288572217021867e-08 4.2040605189590354e-08 -4.288572217021867e-08 0.01144008907642959" pbc="T T F"
H        1.40307756       0.81006721      20.00000000        3       1.00000000       0.00000000       0.00000000       0.00000000       0.00000000       0.00000000       0.00000000
H        4.20923268       0.81006721      20.00000000        3       1.00000000       0.00000000       0.00000000       0.00000000       0.00000000       0.00000000       0.00000000
H        0.00000000       3.24026883      20.00000000        3       1.00000000       0.00000000       0.00000000       0.00000000       0.00000000       0.00000000       0.00000000
H        2.80615512       3.24026883      20.00000000        3       1.00000000       0.00000000       0.00000000       0.00000000       0.00000000       0.00000000       0.00000000
H        0.00000000       1.62013441      22.29121606        2       1.00000000       0.00000000       0.00000000       0.00000000       0.00000000       0.00000000       0.00000000
H        2.80615512       1.62013441      22.29121606        2       1.00000000       0.00000000       0.00000000       0.00000000       0.00000000       0.00000000       0.00000000
H        1.40307756       4.05033604      22.29121606        2       1.00000000       0.00000000       0.00000000       0.00000000       0.00000000       0.00000000       0.00000000
H        4.20923268       4.05033604      22.29121606        2       1.00000000       0.00000000       0.00000000       0.00000000       0.00000000       0.00000000       0.00000000
H        0.00000000       0.00000000      24.58243212        1       1.00000000       0.00000000       0.00000000       0.00000000       0.00000000       0.00000000       0.00000000
H        2.80615512       0.00000000      24.58243212        1       1.00000000       0.00000000       0.00000000       0.00000000       0.00000000       0.00000000       0.00000000
H        1.40307756       2.43020162      24.58243212        1       1.00000000       0.00000000       0.00000000       0.00000000       0.00000000       0.00000000       0.00000000
H        4.20923268       2.43020162      24.58243212        1       1.00000000       0.00000000       0.00000000       0.00000000       0.00000000       0.00000000       0.00000000
H        0.00736146       1.61597472      26.79633418        0       1.00000000       0.00001257      -0.00001956       0.00001144       0.00000594      -0.00000242      -0.00001113
H        2.79879393       1.61597527      26.79632899        0       1.00000000      -0.00000176       0.00000270      -0.00000647       0.00001877      -0.00002870       0.00001089
H        4.20922180       2.43158505      29.01503401        0       1.00000000      -0.00000527      -0.00000183       0.00000001      -0.00000371       0.00000483       0.00000007
H        4.20922831       4.06693052      26.80105880        0       1.00000000       0.00000956      -0.00000716       0.00000271      -0.00001460       0.00000464       0.00000418
H        1.40307434       4.04118068      26.83224446        0       1.00000000       0.00000514      -0.00000561       0.00000465      -0.00000720       0.00002075       0.00000850
17
Lattice="5.612310241546866 0.0 0.0 0.0 4.860403243099165 0.0 0.0 0.0 44.58243212332868" Properties=species:S:1:pos:R:3:tags:I:1:masses:R:1:momenta:R:3:forces:R:3 KEmax=21.974192359903892 iter=84327 volume=1216.1236359717223 set_wall=T ns_energy=-10.966666330987096 last_walked_iter_clone=84250 energy=-10.966666331424598 stress="0.021106545868972523 -2.2140836397414027e-10 4.2040605189590354e-08 -2.2140836397414027e-10 0.021181023043187135 -4.288572217021867e-08 4.2040605189590354e-08 -4.288572217021867e-08 0.01144008907642959" pbc="T T F"
H        1.40307756       0.81006721      20.00000000        3       1.00000000       0.00000000       0.00000000       0.00000000       0.00000000       0.00000000       0.00000000
H        4.20923268       0.81006721      20.00000000        3       1.00000000       0.00000000       0.00000000       0.00000000       0.00000000       0.00000000       0.00000000
H        0.00000000       3.24026883      20.00000000        3       1.00000000       0.00000000       0.00000000       0.00000000       0.00000000       0.00000000       0.00000000
H        2.80615512       3.24026883      20.00000000        3       1.00000000       0.00000000       0.00000000       0.00000000       0.00000000       0.00000000       0.00000000
H        0.00000000       1.62013441      22.29121606        2       1.00000000       0.00000000       0.00000000       0.00000000       0.00000000       0.00000000       0.00000000
H        2.80615512       1.62013441      22.29121606        2       1.00000000       0.00000000       0.00000000       0.00000000       0.00000000       0.00000000       0.00000000
H        1.40307756       4.05033604      22.29121606        2       1.00000000       0.00000000       0.00000000       0.00000000       0.00000000       0.00000000       0.00000000
H        4.20923268       4.05033604      22.29121606        2       1.00000000       0.00000000       0.00000000       0.00000000       0.00000000       0.00000000       0.00000000
H        0.00000000       0.00000000      24.58243212        1       1.00000000       0.00000000       0.00000000       0.00000000       0.00000000       0.00000000       0.00000000
H        2.80615512       0.00000000      24.58243212        1       1.00000000       0.00000000       0.00000000       0.00000000       0.00000000       0.00000000       0.00000000
H        1.40307756       2.43020162      24.58243212        1       1.00000000       0.00000000       0.00000000       0.00000000       0.00000000       0.00000000       0.00000000
H        4.20923268       2.43020162      24.58243212        1       1.00000000       0.00000000       0.00000000       0.00000000       0.00000000       0.00000000       0.00000000
H        0.00736241       1.61597235      26.79633551        0       1.00000000       0.00000578      -0.00001085       0.00000669       0.00000594      -0.00000242      -0.00001113
H        2.79879118       1.61598302      26.79633795        0       1.00000000      -0.00000372      -0.00000423       0.00000466       0.00001877      -0.00002870       0.00001089
H        4.20924685       2.43159734      29.01503481        0       1.00000000       0.00000073       0.00000117      -0.00000107      -0.00000371       0.00000483       0.00000007
H        4.20922318       4.06694143      26.80105240        0       1.00000000      -0.00000563      -0.00000695       0.00000230      -0.00001460       0.00000464       0.00000418
H        1.40307265       4.04118556      26.83225586        0       1.00000000       0.00001283       0.00000396       0.00000730      -0.00000720       0.00002075       0.00000850
17
Lattice="5.612310241546866 0.0 0.0 0.0 4.860403243099165 0.0 0.0 0.0 44.58243212332868" Properties=species:S:1:pos:R:3:tags:I:1:masses:R:1:momenta:R:3:forces:R:3 KEmax=21.974192359903892 iter=84327 volume=1216.1236359717223 set_wall=T ns_energy=-10.966666330988899 last_walked_iter_clone=84324 energy=-10.966666331424598 stress="0.021106545868972523 -2.2140836397414027e-10 4.2040605189590354e-08 -2.2140836397414027e-10 0.021181023043187135 -4.288572217021867e-08 4.2040605189590354e-08 -4.288572217021867e-08 0.01144008907642959" pbc="T T F"
H        1.40307756       0.81006721      20.00000000        3       1.00000000       0.00000000       0.00000000       0.00000000       0.00000000       0.00000000       0.00000000
H        4.20923268       0.81006721      20.00000000        3       1.00000000       0.00000000       0.00000000       0.00000000       0.00000000       0.00000000       0.00000000
H        0.00000000       3.24026883      20.00000000        3       1.00000000       0.00000000       0.00000000       0.00000000       0.00000000       0.00000000       0.00000000
H        2.80615512       3.24026883      20.00000000        3       1.00000000       0.00000000       0.00000000       0.00000000       0.00000000       0.00000000       0.00000000
H        0.00000000       1.62013441      22.29121606        2       1.00000000       0.00000000       0.00000000       0.00000000       0.00000000       0.00000000       0.00000000
H        2.80615512       1.62013441      22.29121606        2       1.00000000       0.00000000       0.00000000       0.00000000       0.00000000       0.00000000       0.00000000
H        1.40307756       4.05033604      22.29121606        2       1.00000000       0.00000000       0.00000000       0.00000000       0.00000000       0.00000000       0.00000000
H        4.20923268       4.05033604      22.29121606        2       1.00000000       0.00000000       0.00000000       0.00000000       0.00000000       0.00000000       0.00000000
H        0.00000000       0.00000000      24.58243212        1       1.00000000       0.00000000       0.00000000       0.00000000       0.00000000       0.00000000       0.00000000
H        2.80615512       0.00000000      24.58243212        1       1.00000000       0.00000000       0.00000000       0.00000000       0.00000000       0.00000000       0.00000000
H        1.40307756       2.43020162      24.58243212        1       1.00000000       0.00000000       0.00000000       0.00000000       0.00000000       0.00000000       0.00000000
H        4.20923268       2.43020162      24.58243212        1       1.00000000       0.00000000       0.00000000       0.00000000       0.00000000       0.00000000       0.00000000
H        0.00736644       1.61597942      26.79633650        0       1.00000000      -0.00000838      -0.00000970       0.00000093       0.00000594      -0.00000242      -0.00001113
H        2.79878762       1.61598030      26.79634392        0       1.00000000       0.00001656      -0.00000939       0.00000173       0.00001877      -0.00002870       0.00001089
H        4.20922350       2.43158734      29.01503251        0       1.00000000       0.00000782       0.00000296      -0.00000006      -0.00000371       0.00000483       0.00000007
H        4.20923751       4.06693644      26.80106273        0       1.00000000      -0.00000670       0.00000460       0.00000442      -0.00001460       0.00000464       0.00000418
H        1.40308053       4.04118353      26.83224949        0       1.00000000       0.00000599      -0.00000375      -0.00000001      -0.00000720       0.00002075       0.00000850
17
Lattice="5.612310241546866 0.0 0.0 0.0 4.860403243099165 0.0 0.0 0.0 44.58243212332868" Properties=species:S:1:pos:R:3:tags:I:1:masses:R:1:momenta:R:3:forces:R:3 KEmax=21.974192359903892 iter=84327 volume=1216.1236359717223 set_wall=T ns_energy=-10.966666330998384 last_walked_iter_clone=84272 energy=-10.966666331424598 stress="0.021106545868972523 -2.2140836397414027e-10 4.2040605189590354e-08 -2.2140836397414027e-10 0.021181023043187135 -4.288572217021867e-08 4.2040605189590354e-08 -4.288572217021867e-08 0.01144008907642959" pbc="T T F"
H        1.40307756       0.81006721      20.00000000        3       1.00000000       0.00000000       0.00000000       0.00000000       0.00000000       0.00000000       0.00000000
H        4.20923268       0.81006721      20.00000000        3       1.00000000       0.00000000       0.00000000       0.00000000       0.00000000       0.00000000       0.00000000
H        0.00000000       3.24026883      20.00000000        3       1.00000000       0.00000000       0.00000000       0.00000000       0.00000000       0.00000000       0.00000000
H        2.80615512       3.24026883      20.00000000        3       1.00000000       0.00000000       0.00000000       0.00000000       0.00000000       0.00000000       0.00000000
H        0.00000000       1.62013441      22.29121606        2       1.00000000       0.00000000       0.00000000       0.00000000       0.00000000       0.00000000       0.00000000
H        2.80615512       1.62013441      22.29121606        2       1.00000000       0.00000000       0.00000000       0.00000000       0.00000000       0.00000000       0.00000000
H        1.40307756       4.05033604      22.29121606        2       1.00000000       0.00000000       0.00000000       0.00000000       0.00000000       0.00000000       0.00000000
H        4.20923268       4.05033604      22.29121606        2       1.00000000       0.00000000       0.00000000       0.00000000       0.00000000       0.00000000       0.00000000
H        0.00000000       0.00000000      24.58243212        1       1.00000000       0.00000000       0.00000000       0.00000000       0.00000000       0.00000000       0.00000000
H        2.80615512       0.00000000      24.58243212        1       1.00000000       0.00000000       0.00000000       0.00000000       0.00000000       0.00000000       0.00000000
H        1.40307756       2.43020162      24.58243212        1       1.00000000       0.00000000       0.00000000       0.00000000       0.00000000       0.00000000       0.00000000
H        4.20923268       2.43020162      24.58243212        1       1.00000000       0.00000000       0.00000000       0.00000000       0.00000000       0.00000000       0.00000000
H        0.00736177       1.61597739      26.79633591        0       1.00000000      -0.00001206       0.00000325      -0.00000563       0.00000594      -0.00000242      -0.00001113
H        2.79879917       1.61597632      26.79633578        0       1.00000000      -0.00000307       0.00000496       0.00000177       0.00001877      -0.00002870       0.00001089
H        4.20924874       2.43158432      29.01503738        0       1.00000000      -0.00000078       0.00000070       0.00001972      -0.00000371       0.00000483       0.00000007
H        4.20923442       4.06693132      26.80106503        0       1.00000000      -0.00000483      -0.00000891       0.00000346      -0.00001460       0.00000464       0.00000418
H        1.40308287       4.04117940      26.83224601        0       1.00000000       0.00000565       0.00000268       0.00000088      -0.00000720       0.00002075       0.00000850
17
Lattice="5.612310241546866 0.0 0.0 0.0 4.860403243099165 0.0 0.0 0.0 44.58243212332868" Properties=species:S:1:pos:R:3:tags:I:1:masses:R:1:momenta:R:3:forces:R:3 KEmax=21.974192359903892 iter=84327 volume=1216.1236359717223 set_wall=T ns_energy=-10.966666330989414 last_walked_iter_clone=84299 energy=-10.966666331424598 stress="0.021106545868972523 -2.2140836397414027e-10 4.2040605189590354e-08 -2.2140836397414027e-10 0.021181023043187135 -4.288572217021867e-08 4.2040605189590354e-08 -4.288572217021867e-08 0.01144008907642959" pbc="T T F"
H        1.40307756       0.81006721      20.00000000        3       1.00000000       0.00000000       0.00000000       0.00000000       0.00000000       0.00000000       0.00000000
H        4.20923268       0.81006721      20.00000000        3       1.00000000       0.00000000       0.00000000       0.00000000       0.00000000       0.00000000       0.00000000
H        0.00000000       3.24026883      20.00000000        3       1.00000000       0.00000000       0.00000000       0.00000000       0.00000000       0.00000000       0.00000000
H        2.80615512       3.24026883      20.00000000        3       1.00000000       0.00000000       0.00000000       0.00000000       0.00000000       0.00000000       0.00000000
H        0.00000000       1.62013441      22.29121606        2       1.00000000       0.00000000       0.00000000       0.00000000       0.00000000       0.00000000       0.00000000
H        2.80615512       1.62013441      22.29121606        2       1.00000000       0.00000000       0.00000000       0.00000000       0.00000000       0.00000000       0.00000000
H        1.40307756       4.05033604      22.29121606        2       1.00000000       0.00000000       0.00000000       0.00000000       0.00000000       0.00000000       0.00000000
H        4.20923268       4.05033604      22.29121606        2       1.00000000       0.00000000       0.00000000       0.00000000       0.00000000       0.00000000       0.00000000
H        0.00000000       0.00000000      24.58243212        1       1.00000000       0.00000000       0.00000000       0.00000000       0.00000000       0.00000000       0.00000000
H        2.80615512       0.00000000      24.58243212        1       1.00000000       0.00000000       0.00000000       0.00000000       0.00000000       0.00000000       0.00000000
H        1.40307756       2.43020162      24.58243212        1       1.00000000       0.00000000       0.00000000       0.00000000       0.00000000       0.00000000       0.00000000
H        4.20923268       2.43020162      24.58243212        1       1.00000000       0.00000000       0.00000000       0.00000000       0.00000000       0.00000000       0.00000000
H        0.00736581       1.61596960      26.79632980        0       1.00000000      -0.00000709       0.00001884       0.00000400       0.00000594      -0.00000242      -0.00001113
H        2.79879186       1.61596541      26.79633051        0       1.00000000       0.00000143       0.00000375      -0.00000419       0.00001877      -0.00002870       0.00001089
H        4.20924133       2.43158149      29.01502993        0       1.00000000       0.00000273      -0.00000501      -0.00000813      -0.00000371       0.00000483       0.00000007
H        4.20923527       4.06692374      26.80105495        0       1.00000000       0.00001371      -0.00000845       0.00000185      -0.00001460       0.00000464       0.00000418
H        1.40308017       4.04117501      26.83224802        0       1.00000000      -0.00000123      -0.00000345       0.00001030      -0.00000720       0.00002075       0.00000850
17
Lattice="5.612310241546866 0.0 0.0 0.0 4.860403243099165 0.0 0.0 0.0 44.58243212332868" Properties=species:S:1:pos:R:3:tags:I:1:masses:R:1:momenta:R:3:forces:R:3 KEmax=21.974192359903892 iter=84327 volume=1216.1236359717223 set_wall=T ns_energy=-10.9666663310127 last_walked_iter_clone=84238 energy=-10.966666331424598 stress="0.021106545868972523 -2.2140836397414027e-10 4.2040605189590354e-08 -2.2140836397414027e-10 0.021181023043187135 -4.288572217021867e-08 4.2040605189590354e-08 -4.288572217021867e-08 0.01144008907642959" pbc="T T F"
H        1.40307756       0.81006721      20.00000000        3       1.00000000       0.00000000       0.00000000       0.00000000       0.00000000       0.00000000       0.00000000