17
Lattice="5.612310241546866 0.0 0.0 0.0 4.860403243099165 0.0 0.0 0.0 44.58243212332868" Properties=species:S:1:pos:R:3:tags:I:1:masses:R:1:momenta:R:3:forces:R:3 KEmax=21.974192359903892 iter=42330 volume=1216.1236359717223 set_wall=T ns_energy=-10.966537648662346 last_walked_iter_clone=42255 energy=-10.966618815920251 stress="0.021044076528264573 8.19350499728041e-06 -2.254613121976443e-05 8.19350499728041e-06 0.021137102775225642 2.521213755273703e-05 -2.254613121976443e-05 2.521213755273703e-05 0.011257581525513897" pbc="T T F"
H        1.40307756       0.81006721      20.00000000        3       1.00000000       0.00000000       0.00000000       0.00000000       0.00000000       0.00000000       0.00000000
H        4.20923268       0.81006721      20.00000000        3       1.00000000       0.00000000       0.00000000       0.00000000       0.00000000       0.00000000       0.00000000
H        0.00000000       3.24026883      20.00000000        3       1.00000000       0.00000000       0.00000000       0.00000000       0.00000000       0.00000000       0.00000000
H        2.80615512       3.24026883      20.00000000        3       1.00000000       0.00000000       0.00000000       0.00000000       0.00000000       0.00000000       0.00000000
H        0.00000000       1.62013441      22.29121606        2       1.00000000       0.00000000       0.00000000       0.00000000       0.00000000       0.00000000       0.00000000
H        2.80615512       1.62013441      22.29121606        2       1.00000000       0.00000000       0.00000000       0.00000000       0.00000000       0.00000000       0.00000000
H        1.40307756       4.05033604      22.29121606        2       1.00000000       0.00000000       0.00000000       0.00000000       0.00000000       0.00000000       0.00000000
H        4.20923268       4.05033604      22.29121606        2       1.00000000       0.00000000       0.00000000       0.00000000       0.00000000       0.00000000       0.00000000
H        0.00000000       0.00000000      24.58243212        1       1.00000000       0.00000000       0.00000000       0.00000000       0.00000000       0.00000000       0.00000000
H        2.80615512       0.00000000      24.58243212        1       1.00000000       0.00000000       0.00000000       0.00000000       0.00000000       0.00000000       0.00000000
H        1.40307756       2.43020162      24.58243212        1       1.00000000       0.00000000       0.00000000       0.00000000       0.00000000       0.00000000       0.00000000
H        4.20923268       2.43020162      24.58243212        1       1.00000000       0.00000000       0.00000000       0.00000000       0.00000000       0.00000000       0.00000000
H        0.00841994       1.61214495      26.79503314        0       1.00000000      -0.00530353       0.00295346      -0.00442742      -0.00107925       0.00610554      -0.00001261
H        2.79819871       1.61197364      26.79610105        0       1.00000000      -0.00168586      -0.00262654      -0.00497571       0.00382311      -0.00537779       0.00057425
H        4.21386384       2.42748449      29.01689678        0       1.00000000      -0.00453749      -0.00109429       0.00179646       0.00032175      -0.00064595       0.00812538
H        4.21144088       4.06476494      26.80165003        0       1.00000000       0.00293965      -0.00004014       0.00123198      -0.00732225       0.00168645      -0.00109780
H        1.40457579       4.03894824      26.83011961        0       1.00000000       0.00016584      -0.00373960      -0.00382556       0.00635959      -0.00386846       0.00436926
17
Lattice="5.612310241546866 0.0 0.0 0.0 4.860403243099165 0.0 0.0 0.0 44.58243212332868" Properties=species:S:1:pos:R:3:tags:I:1:masses:R:1:momenta:R:3:forces:R:3 KEmax=21.974192359903892 iter=42330 volume=1216.1236359717223 set_wall=T ns_energy=-10.966548236841408 last_walked_iter_clone=42323 energy=-10.966618815920251 stress="0.021044076528264573 8.19350499728041e-06 -2.254613121976443e-05 8.19350499728041e-06 0.021137102775225642 2.521213755273703e-05 -2.254613121976443e-05 2.521213755273703e-05 0.011257581525513897" pbc="T T F"
H        1.40307756       0.81006721      20.00000000        3       1.00000000       0.00000000       0.00000000       0.00000000       0.00000000       0.00000000       0.00000000
H        4.20923268       0.81006721      20.00000000        3       1.00000000       0.00000000       0.00000000       0.00000000       0.00000000       0.00000000       0.00000000
H        0.00000000       3.24026883      20.00000000        3       1.00000000       0.00000000       0.00000000       0.00000000       0.00000000       0.00000000       0.00000000
H        2.80615512       3.24026883      20.00000000        3       1.00000000       0.00000000       0.00000000       0.00000000       0.00000000       0.00000000       0.00000000
H        0.00000000       1.62013441      22.29121606        2       1.00000000       0.00000000       0.00000000       0.00000000       0.00000000       0.00000000       0.00000000
H        2.80615512       1.62013441      22.29121606        2       1.00000000       0.00000000       0.00000000       0.00000000       0.00000000       0.00000000       0.00000000
H        1.40307756       4.05033604      22.29121606        2       1.00000000       0.00000000       0.00000000       0.00000000       0.00000000       0.00000000       0.00000000
H        4.20923268       4.05033604      22.29121606        2       1.00000000       0.00000000       0.00000000       0.00000000       0.00000000       0.00000000       0.00000000
H        0.00000000       0.00000000      24.58243212        1       1.00000000       0.00000000       0.00000000       0.00000000       0.00000000       0.00000000       0.00000000
H        2.80615512       0.00000000      24.58243212        1       1.00000000       0.00000000       0.00000000       0.00000000       0.00000000       0.00000000       0.00000000
H        1.40307756       2.43020162      24.58243212        1       1.00000000       0.00000000       0.00000000       0.00000000       0.00000000       0.00000000       0.00000000
H        4.20923268       2.43020162      24.58243212        1       1.00000000       0.00000000       0.00000000       0.00000000       0.00000000       0.00000000       0.00000000
H        0.00379659       1.61511508      26.79911961        0       1.00000000      -0.00061658      -0.00078349       0.00349241      -0.00107925       0.00610554      -0.00001261
H        2.79792795       1.61300787      26.79695305        0       1.00000000       0.00329238      -0.00362341       0.00156488       0.00382311      -0.00537779       0.00057425
H        4.20959531       2.43503793      29.01677301        0       1.00000000       0.00204050      -0.00157688      -0.00007374       0.00032175      -0.00064595       0.00812538
H        4.20655463       4.06862629      26.80144561        0       1.00000000      -0.00134739      -0.00385019      -0.00129204      -0.00732225       0.00168645      -0.00109780
H        1.39848252       4.04171953      26.83054365        0       1.00000000      -0.00219948       0.00020477      -0.00161278       0.00635959      -0.00386846       0.00436926
17
Lattice="5.612310241546866 0.0 0.0 0.0 4.860403243099165 0.0 0.0 0.0 44.58243212332868" Properties=species:S:1:pos:R:3:tags:I:1:masses:R:1:momenta:R:3:forces:R:3 KEmax=21.974192359903892 iter=42330 volume=1216.1236359717223 set_wall=T ns_energy=-10.96654029025827 last_walked_iter_clone=42262 energy=-10.966618815920251 stress="0.021044076528264573 8.19350499728041e-06 -2.254613121976443e-05 8.19350499728041e-06 0.021137102775225642 2.521213755273703e-05 -2.254613121976443e-05 2.521213755273703e-05 0.011257581525513897" pbc="T T F"
H        1.40307756       0.81006721      20.00000000        3       1.00000000       0.00000000       0.00000000       0.00000000       0.00000000       0.00000000       0.00000000
H        4.20923268       0.81006721      20.00000000        3       1.00000000       0.00000000       0.00000000       0.00000000       0.00000000       0.00000000       0.00000000
H        0.00000000       3.24026883      20.00000000        3       1.00000000       0.00000000       0.00000000       0.00000000       0.00000000       0.00000000       0.00000000
H        2.80615512       3.24026883      20.00000000        3       1.00000000       0.00000000       0.00000000       0.00000000       0.00000000       0.00000000       0.00000000
H        0.00000000       1.62013441      22.29121606        2       1.00000000       0.00000000       0.00000000       0.00000000       0.00000000       0.00000000       0.00000000
H        2.80615512       1.62013441      22.29121606        2       1.00000000       0.00000000       0.00000000       0.00000000       0.00000000       0.00000000       0.00000000
H        1.40307756       4.05033604      22.29121606        2       1.00000000       0.00000000       0.00000000       0.00000000       0.00000000       0.00000000       0.00000000
H        4.20923268       4.05033604      22.29121606        2       1.00000000       0.00000000       0.00000000       0.00000000       0.00000000       0.00000000       0.00000000
H        0.00000000       0.00000000      24.58243212        1       1.00000000       0.00000000       0.00000000       0.00000000       0.00000000       0.00000000       0.00000000
H        2.80615512       0.00000000      24.58243212        1       1.00000000       0.00000000       0.00000000       0.00000000       0.00000000       0.00000000       0.00000000
H        1.40307756       2.43020162      24.58243212        1       1.00000000       0.00000000       0.00000000       0.00000000       0.00000000       0.00000000       0.00000000
H        4.20923268       2.43020162      24.58243212        1       1.00000000       0.00000000       0.00000000       0.00000000       0.00000000       0.00000000       0.00000000
H        0.00826660       1.61655868      26.79881169        0       1.00000000      -0.00436528      -0.00242605      -0.00183902      -0.00107925       0.00610554      -0.00001261
H        2.79742258       1.61428149      26.79581741        0       1.00000000       0.00104367      -0.00420041      -0.00020090       0.00382311      -0.00537779       0.00057425
H        4.20956833       2.42933927      29.01603569        0       1.00000000      -0.00063722       0.00227279       0.00280213       0.00032175      -0.00064595       0.00812538
H        4.20687277       4.06795451      26.80143476        0       1.00000000      -0.00234992       0.00479723       0.00422187      -0.00732225       0.00168645      -0.00109780
H        1.39893524       4.04370327      26.83134834        0       1.00000000       0.00276830       0.00279763      -0.00068158       0.00635959      -0.00386846       0.00436926
17
Lattice="5.612310241546866 0.0 0.0 0.0 4.860403243099165 0.0 0.0 0.0 44.58243212332868" Properties=species:S:1:pos:R:3:tags:I:1:masses:R:1:momenta:R:3:forces:R:3 KEmax=21.974192359903892 iter=42330 volume=1216.1236359717223 set_wall=T ns_energy=-10.966541507689815 last_walked_iter_clone=42304 energy=-10.966618815920251 stress="0.021044076528264573 8.19350499728041e-06 -2.254613121976443e-05 8.19350499728041e-06 0.021137102775225642 2.521213755273703e-05 -2.254613121976443e-05 2.521213755273703e-05 0.011257581525513897" pbc="T T F"
H        1.40307756       0.81006721      20.00000000        3       1.00000000       0.00000000       0.00000000       0.00000000       0.00000000       0.00000000       0.00000000
H        4.20923268       0.81006721      20.00000000        3       1.00000000       0.00000000       0.00000000       0.00000000       0.00000000       0.00000000       0.00000000
H        0.00000000       3.24026883      20.00000000        3       1.00000000       0.00000000       0.00000000       0.00000000       0.00000000       0.00000000       0.00000000
H        2.80615512       3.24026883      20.00000000        3       1.00000000       0.00000000       0.00000000       0.00000000       0.00000000       0.00000000       0.00000000
H        0.00000000       1.62013441      22.29121606        2       1.00000000       0.00000000       0.00000000       0.00000000       0.00000000       0.00000000       0.00000000
H        2.80615512       1.62013441      22.29121606        2       1.00000000       0.00000000       0.00000000       0.00000000       0.00000000       0.00000000       0.00000000
H        1.40307756       4.05033604      22.29121606        2       1.00000000       0.00000000       0.00000000       0.00000000       0.00000000       0.00000000       0.00000000
H        4.20923268       4.05033604      22.29121606        2       1.00000000       0.00000000       0.00000000       0.00000000       0.00000000       0.00000000       0.00000000
H        0.00000000       0.00000000      24.58243212        1       1.00000000       0.00000000       0.00000000       0.00000000       0.00000000       0.00000000       0.00000000
H        2.80615512       0.00000000      24.58243212        1       1.00000000       0.00000000       0.00000000       0.00000000       0.00000000       0.00000000       0.00000000
H        1.40307756       2.43020162      24.58243212        1       1.00000000       0.00000000       0.00000000       0.00000000       0.00000000       0.00000000       0.00000000
H        4.20923268       2.43020162      24.58243212        1       1.00000000       0.00000000       0.00000000       0.00000000       0.00000000       0.00000000       0.00000000
H        0.00724690       1.62053745      26.79594176        0       1.00000000      -0.00497893      -0.00357479       0.00100391      -0.00107925       0.00610554      -0.00001261
H        2.79809452       1.61912449      26.79851995        0       1.00000000      -0.00265561       0.00116891       0.00142837       0.00382311      -0.00537779       0.00057425
H        4.20809375       2.43629403      29.01816899        0       1.00000000      -0.00403726       0.00265686      -0.00542573       0.00032175      -0.00064595       0.00812538
H        4.20898679       4.07111550      26.80178061        0       1.00000000       0.00069275       0.00539872       0.00450569      -0.00732225       0.00168645      -0.00109780
H        1.40424175       4.04377935      26.83289680        0       1.00000000      -0.00252138      -0.00109936       0.00282656       0.00635959      -0.00386846       0.00436926
17
Lattice="5.612310241546866 0.0 0.0 0.0 4.860403243099165 0.0 0.0 0.0 44.58243212332868" Properties=species:S:1:pos:R:3:tags:I:1:masses:R:1:momenta:R:3:forces:R:3 KEmax=21.974192359903892 iter=42330 volume=1216.1236359717223 set_wall=T ns_energy=-10.966537655118126 last_walked_iter_clone=42180 energy=-10.966618815920251 stress="0.021044076528264573 8.19350499728041e-06 -2.254613121976443e-05 8.19350499728041e-06 0.021137102775225642 2.521213755273703e-05 -2.254613121976443e-05 2.521213755273703e-05 0.011257581525513897" pbc="T T F"
H        1.40307756       0.81006721      20.00000000        3       1.00000000       0.00000000       0.00000000       0.00000000       0.00000000       0.00000000       0.00000000
H        4.20923268       0.81006721      20.00000000        3       1.00000000       0.00000000       0.00000000       0.00000000       0.00000000       0.00000000       0.00000000
H        0.00000000       3.24026883      20.00000000        3       1.00000000       0.00000000       0.00000000       0.00000000       0.00000000       0.00000000       0.00000000
H        2.80615512       3.24026883      20.00000000        3       1.00000000       0.00000000       0.00000000       0.00000000       0.00000000       0.00000000       0.00000000
H        0.00000000       1.62013441      22.29121606        2       1.00000000       0.00000000       0.00000000       0.00000000       0.00000000       0.00000000       0.00000000
H        2.80615512       1.62013441      22.29121606        2       1.00000000       0.00000000       0.00000000       0.00000000       0.00000000       0.00000000       0.00000000
H        1.40307756       4.05033604      22.29121606        2       1.00000000       0.00000000       0.00000000       0.00000000       0.00000000       0.00000000       0.00000000
H        4.20923268       4.05033604      22.29121606        2       1.00000000       0.00000000       0.00000000       0.00000000       0.00000000       0.00000000       0.00000000
H        0.00000000       0.00000000      24.58243212        1       1.00000000       0.00000000       0.00000000       0.00000000       0.00000000       0.00000000       0.00000000
H        2.80615512       0.00000000      24.58243212        1       1.00000000       0.00000000       0.00000000       0.00000000       0.00000000       0.00000000       0.00000000
H        1.40307756       2.43020162      24.58243212        1       1.00000000       0.00000000       0.00000000       0.00000000       0.00000000       0.00000000       0.00000000
H        4.20923268       2.43020162      24.58243212        1       1.00000000       0.00000000       0.00000000       0.00000000       0.00000000       0.00000000       0.00000000
H        0.00557644       1.61686883      26.79258141        0       1.00000000       0.00198977      -0.00318589       0.00037630      -0.00107925       0.00610554      -0.00001261
H        2.79778325       1.61756579      26.79637344        0       1.00000000       0.00469326      -0.00467726       0.00043981       0.00382311      -0.00537779       0.00057425
H        4.20934901       2.42401272      29.01534847        0       1.00000000      -0.00094037      -0.00084063       0.00096021       0.00032175      -0.00064595       0.00812538
H        4.21098343       4.06838269      26.80151385        0       1.00000000       0.00387465      -0.00282557       0.00040711      -0.00732225       0.00168645      -0.00109780
H        1.40208762       4.03795270      26.83151958        0       1.00000000      -0.00131417      -0.00237932       0.00027450       0.00635959      -0.00386846       0.00436926
17
Lattice="5.612310241546866 0.0 0.0 0.0 4.860403243099165 0.0 0.0 0.0 44.58243212332868" Properties=species:S:1:pos:R:3:tags:I:1:masses:R:1:momenta:R:3:forces:R:3 KEmax=21.974192359903892 iter=42330 volume=1216.1236359717223 set_wall=T ns_energy=-10.96653760087628 last_walked_iter_clone=42196 energy=-10.966618815920251 stress="0.021044076528264573 8.19350499728041e-06 -2.254613121976443e-05 8.19350499728041e-06 0.021137102775225642 2.521213755273703e-05 -2.254613121976443e-05 2.521213755273703e-05 0.011257581525513897" pbc="T T F"
H        1.40307756       0.81006721      20.00000000        3       1.00000000       0.00000000       0.00000000       0.00000000       0.00000000       0.00000000       0.00000000
H        4.20923268       0.81006721      20.00000000        3       1.00000000       0.00000000       0.00000000       0.00000000       0.00000000       0.00000000       0.00000000
H        0.00000000       3.24026883      20.00000000        3       1.00000000       0.00000000       0.00000000       0.00000000       0.00000000       0.00000000       0.00000000
H        2.80615512       3.24026883      20.00000000        3       1.00000000       0.00000000       0.00000000       0.00000000       0.00000000       0.00000000       0.00000000
H        0.00000000       1.62013441      22.29121606        2       1.00000000       0.00000000       0.00000000       0.00000000       0.00000000       0.00000000       0.00000000
H        2.80615512       1.62013441      22.29121606        2       1.00000000       0.00000000       0.00000000       0.00000000       0.00000000       0.00000000       0.00000000
H        1.40307756       4.05033604      22.29121606        2       1.00000000       0.00000000       0.00000000       0.00000000       0.00000000       0.00000000       0.00000000
H        4.20923268       4.05033604      22.29121606        2       1.00000000       0.00000000       0.00000000       0.00000000       0.00000000       0.00000000       0.00000000
H        0.00000000       0.00000000      24.58243212        1       1.00000000       0.00000000       0.00000000       0.00000000       0.00000000       0.00000000       0.00000000
H        2.80615512       0.00000000      24.58243212        1       1.00000000       0.00000000       0.00000000       0.00000000       0.00000000       0.00000000       0.00000000
H        1.40307756       2.43020162      24.58243212        1       1.00000000       0.00000000       0.00000000       0.00000000       0.00000000       0.00000000       0.00000000
H        4.20923268       2.43020162      24.58243212        1       1.00000000       0.00000000       0.00000000       0.00000000       0.00000000       0.00000000       0.00000000
H        0.01088963       1.61715314      26.79579348        0       1.00000000       0.00087110      -0.00498071       0.00395414      -0.00107925       0.00610554      -0.00001261
H        2.80065217       1.61755217      26.79769408        0       1.00000000       0.00031255       0.00393493       0.00169180       0.00382311      -0.00537779       0.00057425
H        4.21191120       2.43116309      29.01910057        0       1.00000000       0.00284918      -0.00401647      -0.00281347       0.00032175      -0.00064595       0.00812538
H        4.21175628       4.06809900      26.80168368        0       1.00000000      -0.00014112       0.00163636       0.00346386      -0.00732225       0.00168645      -0.00109780
H        1.40214445       4.04235317      26.83403917        0       1.00000000      -0.00189735       0.00335802      -0.00491852       0.00635959      -0.00386846       0.00436926
17
Lattice="5.612310241546866 0.0 0.0 0.0 4.860403243099165 0.0 0.0 0.0 44.58243212332868" Properties=species:S:1:pos:R:3:tags:I:1:masses:R:1:momenta:R:3:forces:R:3 KEmax=21.974192359903892 iter=42330 volume=1216.1236359717223 set_wall=T ns_energy=-10.966543027110884 last_walked_iter_clone=42276 energy=-10.966618815920251 stress="0.021044076528264573 8.19350499728041e-06 -2.254613121976443e-05 8.19350499728041e-06 0.021137102775225642 2.521213755273703e-05 -2.254613121976443e-05 2.521213755273703e-05 0.011257581525513897" pbc="T T F"
H        1.40307756       0.81006721      20.00000000        3       1.00000000       0.00000000       0.00000000       0.00000000       0.00000000       0.00000000       0.00000000
H        4.20923268       0.81006721      20.00000000        3       1.00000000       0.00000000       0.00000000       0.00000000       0.00000000       0.00000000       0.00000000
H        0.00000000       3.24026883      20.00000000        3       1.00000000       0.00000000       0.00000000       0.00000000       0.00000000       0.00000000       0.00000000
H        2.80615512       3.24026883      20.00000000        3       1.00000000       0.00000000       0.00000000       0.00000000       0.00000000       0.00000000       0.00000000
H        0.00000000       1.62013441      22.29121606        2       1.00000000       0.00000000       0.00000000       0.00000000       0.00000000       0.00000000       0.00000000
H        2.80615512       1.62013441      22.29121606        2       1.00000000       0.00000000       0.00000000       0.00000000       0.00000000       0.00000000       0.00000000
H        1.40307756       4.05033604      22.29121606        2       1.00000000       0.00000000       0.00000000       0.00000000       0.00000000       0.00000000       0.00000000
H        4.20923268       4.05033604      22.29121606        2       1.00000000       0.00000000       0.00000000       0.00000000       0.00000000       0.00000000       0.00000000
H        0.00000000       0.00000000      24.58243212        1       1.00000000       0.00000000       0.00000000       0.00000000       0.00000000       0.00000000       0.00000000
H        2.80615512       0.00000000      24.58243212        1       1.00000000       0.00000000       0.00000000       0.00000000       0.00000000       0.00000000       0.00000000
H        1.40307756       2.43020162      24.58243212        1       1.00000000       0.00000000       0.00000000       0.00000000       0.00000000       0.00000000       0.00000000
H        4.20923268       2.43020162      24.58243212        1       1.00000000       0.00000000       0.00000000       0.00000000       0.00000000       0.00000000       0.00000000
H        0.00373768       1.61797984      26.79940381        0       1.00000000      -0.00277319      -0.00198237       0.00306495      -0.00107925       0.00610554      -0.00001261
H        2.79536358       1.61690226      26.79808569        0       1.00000000       0.00062764      -0.00154165      -0.00619534       0.00382311      -0.00537779       0.00057425
H        4.20353811       2.43086940      29.01979265        0       1.00000000      -0.00065241       0.00308984      -0.00155221       0.00032175      -0.00064595       0.00812538
H        4.20708746       4.06638543      26.80060059        0       1.00000000       0.00132573      -0.00500624       0.00156491      -0.00732225       0.00168645      -0.00109780
H        1.40014775       4.04447604      26.83517896        0       1.00000000      -0.00178628      -0.00127967      -0.00186265       0.00635959      -0.00386846       0.00436926
17
Lattice="5.612310241546866 0.0 0.0 0.0 4.860403243099165 0.0 0.0 0.0 44.58243212332868" Properties=species:S:1:pos:R:3:tags:I:1:masses:R:1:momenta:R:3:forces:R:3 KEmax=21.974192359903892 iter=42330 volume=1216.1236359717223 set_wall=T ns_energy=-10.96653716880461 last_walked_iter_clone=42144 energy=-10.966618815920251 stress="0.021044076528264573 8.19350499728041e-06 -2.254613121976443e-05 8.19350499728041e-06 0.021137102775225642 2.521213755273703e-05 -2.254613121976443e-05 2.521213755273703e-05 0.011257581525513897" pbc="T T F"
H        1.40307756       0.81006721      20.00000000        3       1.00000000       0.00000000       0.00000000       0.00000000       0.00000000       0.00000000       0.00000000
H        4.20923268       0.81006721      20.00000000        3       1.00000000       0.00000000       0.00000000       0.00000000       0.00000000       0.00000000       0.00000000
H        0.00000000       3.24026883      20.00000000        3       1.00000000       0.00000000       0.00000000       0.00000000       0.00000000       0.00000000       0.00000000
H        2.80615512       3.24026883      20.00000000        3       1.00000000       0.00000000       0.00000000       0.00000000       0.00000000       0.00000000       0.00000000
H        0.00000000       1.62013441      22.29121606        2       1.00000000       0.00000000       0.00000000       0.00000000       0.00000000       0.00000000       0.00000000
H        2.80615512       1.62013441      22.29121606        2       1.00000000       0.00000000       0.00000000       0.00000000       0.00000000       0.00000000       0.00000000
H        1.40307756       4.05033604      22.29121606        2       1.00000000       0.00000000       0.00000000       0.00000000       0.00000000       0.00000000       0.00000000
H        4.20923268       4.05033604      22.29121606        2       1.00000000       0.00000000       0.00000000       0.00000000       0.00000000       0.00000000       0.00000000
H        0.00000000       0.00000000      24.58243212        1       1.00000000       0.00000000       0.00000000       0.00000000       0.00000000       0.00000000       0.00000000
H        2.80615512       0.00000000      24.58243212        1       1.00000000       0.00000000       0.00000000       0.00000000       0.00000000       0.00000000       0.00000000
H        1.40307756       2.43020162      24.58243212        1       1.00000000       0.00000000       0.00000000       0.00000000       0.00000000       0.00000000       0.00000000
H        4.20923268       2.43020162      24.58243212        1       1.00000000       0.00000000       0.00000000       0.00000000       0.00000000       0.00000000       0.00000000
H        0.00638430       1.61590966      26.79526050        0       1.00000000      -0.00364524       0.00092341      -0.00100055      -0.00107925       0.00610554      -0.00001261
H        2.79801401       1.61829753      26.79326490        0       1.00000000       0.00293150       0.00163749      -0.00257879       0.00382311      -0.00537779       0.00057425
H        4.20754843       2.43735376      29.01581688        0       1.00000000      -0.00060696      -0.00432499      -0.00165216       0.00032175      -0.00064595       0.00812538
H        4.21006122       4.07183285      26.79914169        0       1.00000000      -0.00127618      -0.00209570      -0.00186457      -0.00732225       0.00168645      -0.00109780
H        1.40544072       4.04129572      26.83479496        0       1.00000000       0.00227690      -0.00104133       0.00327587       0.00635959      -0.00386846       0.00436926
17
Lattice="5.612310241546866 0.0 0.0 0.0 4.860403243099165 0.0 0.0 0.0 44.58243212332868" Properties=species:S:1:pos:R:3:tags:I:1:masses:R:1:momenta:R:3:forces:R:3 KEmax=21.974192359903892 iter=42330 volume=1216.1236359717223 set_wall=T ns_energy=-10.966549374882703 last_walked_iter_clone=42293 energy=-10.966618815920251 stress="0.021044076528264573 8.19350499728041e-06 -2.254613121976443e-05 8.19350499728041e-06 0.021137102775225642 2.521213755273703e-05 -2.254613121976443e-05 2.521213755273703e-05 0.011257581525513897" pbc="T T F"
H        1.40307756       0.81006721      20.00000000        3       1.00000000       0.00000000       0.00000000       0.00000000       0.00000000       0.00000000       0.00000000
H        4.20923268       0.81006721      20.00000000        3       1.00000000       0.00000000       0.00000000       0.00000000       0.00000000       0.00000000       0.00000000