18
Lattice="5.612310241546866 0.0 0.0 0.0 4.860403243099165 0.0 0.0 0.0 14.582432123328676" Properties=species:S:1:pos:R:3:tags:I:1:masses:R:1:momenta:R:3 KEmax=23.26679191048647 iter=99 volume=397.78090899293073 ns_energy=1908.8231213063937 last_walked_iter_clone=97 ns_P=0.0 config_n_global=99 ns_KE=21.350349924956785 pbc="T T T"
H        1.40307756       0.81006721       5.00000000        3       1.00000000       0.00000000       0.00000000       0.00000000
H        4.20923268       0.81006721       5.00000000        3       1.00000000       0.00000000       0.00000000       0.00000000
H        0.00000000       3.24026883       5.00000000        3       1.00000000       0.00000000       0.00000000       0.00000000
H        2.80615512       3.24026883       5.00000000        3       1.00000000       0.00000000       0.00000000       0.00000000
H        0.00000000       1.62013441       7.29121606        2       1.00000000       0.00000000       0.00000000       0.00000000
H        2.80615512       1.62013441       7.29121606        2       1.00000000       0.00000000       0.00000000       0.00000000
H        1.40307756       4.05033604       7.29121606        2       1.00000000       0.00000000       0.00000000       0.00000000
H        4.20923268       4.05033604       7.29121606        2       1.00000000       0.00000000       0.00000000       0.00000000
H        0.00000000       0.00000000       9.58243212        1       1.00000000       0.00000000       0.00000000       0.00000000
H        2.80615512       0.00000000       9.58243212        1       1.00000000       0.00000000       0.00000000       0.00000000
H        1.40307756       2.43020162       9.58243212        1       1.00000000       0.00000000       0.00000000       0.00000000
H        4.20923268       2.43020162       9.58243212        1       1.00000000       0.00000000       0.00000000       0.00000000
H        1.38843785       3.87625120      13.04122105        0       1.00000000       1.25005938       0.01564285       1.55494810
H        5.50464365       2.00631199      13.89634301        0       1.00000000      -1.32913031      -0.74165059      -0.68881489
H        1.71349827       4.01690536       1.18635697        0       1.00000000       2.56686238       0.90350706      -1.89066402
H        1.54448269       1.42191304      12.86083582        0       1.00000000      -0.36419750      -0.47525224      -0.79578995
H        4.21202728       2.09731087      12.35880855        0       1.00000000      -0.65907695       0.08662341      -1.14889883
H        3.00894936       2.37352616      12.33717904        0       1.00000000       2.81819686      -1.95182377       3.23166148
18
Lattice="5.612310241546866 0.0 0.0 0.0 4.860403243099165 0.0 0.0 0.0 14.582432123328676" Properties=species:S:1:pos:R:3:tags:I:1:masses:R:1:momenta:R:3 KEmax=23.26679191048647 iter=199 volume=397.78090899293073 ns_energy=159.7321955435303 last_walked_iter_clone=67 ns_P=0.0 config_n_global=199 ns_KE=22.458601775891005 pbc="T T T"
H        1.40307756       0.81006721       5.00000000        3       1.00000000       0.00000000       0.00000000       0.00000000
H        4.20923268       0.81006721       5.00000000        3       1.00000000       0.00000000       0.00000000       0.00000000
H        0.00000000       3.24026883       5.00000000        3       1.00000000       0.00000000       0.00000000       0.00000000
H        2.80615512       3.24026883       5.00000000        3       1.00000000       0.00000000       0.00000000       0.00000000
H        0.00000000       1.62013441       7.29121606        2       1.00000000       0.00000000       0.00000000       0.00000000
H        2.80615512       1.62013441       7.29121606        2       1.00000000       0.00000000       0.00000000       0.00000000
H        1.40307756       4.05033604       7.29121606        2       1.00000000       0.00000000       0.00000000       0.00000000
H        4.20923268       4.05033604       7.29121606        2       1.00000000       0.00000000       0.00000000       0.00000000
H        0.00000000       0.00000000       9.58243212        1       1.00000000       0.00000000       0.00000000       0.00000000
H        2.80615512       0.00000000       9.58243212        1       1.00000000       0.00000000       0.00000000       0.00000000
H        1.40307756       2.43020162       9.58243212        1       1.00000000       0.00000000       0.00000000       0.00000000
H        4.20923268       2.43020162       9.58243212        1       1.00000000       0.00000000       0.00000000       0.00000000
H        3.74692491       0.58457672      12.55604658        0       1.00000000      -1.40140520      -1.06695458      -0.92196653
H        1.41376828       0.82001510      14.56519409        0       1.00000000       0.03210346       1.72885102      -1.87738006
H        1.36635234       0.38456875       1.88042169        0       1.00000000       0.61009135      -2.44946724      -0.56032236
H        1.18711543       3.46681313      13.93839589        0       1.00000000       1.63163314      -1.64372353       2.65054361
H        5.32432840       4.14179293       0.71212199        0       1.00000000      -1.36447096       2.16319376      -0.42095839
H        4.83850724       1.22736767      13.41380068        0       1.00000000       2.25709399      -1.88472241      -0.09897815
18
Lattice="5.612310241546866 0.0 0.0 0.0 4.860403243099165 0.0 0.0 0.0 14.582432123328676" Properties=species:S:1:pos:R:3:tags:I:1:masses:R:1:momenta:R:3 KEmax=23.26679191048647 iter=299 volume=397.78090899293073 ns_energy=22.323675825873575 last_walked_iter_clone=230 ns_P=0.0 config_n_global=299 ns_KE=22.061634972091447 pbc="T T T"
H        1.40307756       0.81006721       5.00000000        3       1.00000000       0.00000000       0.00000000       0.00000000
H        4.20923268       0.81006721       5.00000000        3       1.00000000       0.00000000       0.00000000       0.00000000
H        0.00000000       3.24026883       5.00000000        3       1.00000000       0.00000000       0.00000000       0.00000000
H        2.80615512       3.24026883       5.00000000        3       1.00000000       0.00000000       0.00000000       0.00000000
H        0.00000000       1.62013441       7.29121606        2       1.00000000       0.00000000       0.00000000       0.00000000
H        2.80615512       1.62013441       7.29121606        2       1.00000000       0.00000000       0.00000000       0.00000000
H        1.40307756       4.05033604       7.29121606        2       1.00000000       0.00000000       0.00000000       0.00000000
H        4.20923268       4.05033604       7.29121606        2       1.00000000       0.00000000       0.00000000       0.00000000
H        0.00000000       0.00000000       9.58243212        1       1.00000000       0.00000000       0.00000000       0.00000000
H        2.80615512       0.00000000       9.58243212        1       1.00000000       0.00000000       0.00000000       0.00000000
H        1.40307756       2.43020162       9.58243212        1       1.00000000       0.00000000       0.00000000       0.00000000
H        4.20923268       2.43020162       9.58243212        1       1.00000000       0.00000000       0.00000000       0.00000000
H        3.29097970       4.54130647       1.69227575        0       1.00000000      -1.13471961       0.82236550      -3.68843698
H        0.01195113       2.37345113      13.75655397        0       1.00000000       0.68226281       0.99771575      -1.24144850
H        0.94708710       1.10517538      12.42190231        0       1.00000000       2.09643382       0.99880887       0.77299091
H        2.21701626       2.70067541      12.90568165        0       1.00000000      -1.08423548      -2.33200748      -0.07734055
H        0.24262527       0.29495268       1.97342207        0       1.00000000       0.77646597       0.32822876       0.05653093
H        2.38356689       0.52483981      13.68980083        0       1.00000000       1.74751296       2.26175923       2.01483345
18
Lattice="5.612310241546866 0.0 0.0 0.0 4.860403243099165 0.0 0.0 0.0 14.582432123328676" Properties=species:S:1:pos:R:3:tags:I:1:masses:R:1:momenta:R:3 KEmax=23.26679191048647 iter=399 volume=397.78090899293073 ns_energy=14.910056665371771 last_walked_iter_clone=318 ns_P=0.0 config_n_global=399 ns_KE=21.753605862370488 pbc="T T T"
H        1.40307756       0.81006721       5.00000000        3       1.00000000       0.00000000       0.00000000       0.00000000
H        4.20923268       0.81006721       5.00000000        3       1.00000000       0.00000000       0.00000000       0.00000000
H        0.00000000       3.24026883       5.00000000        3       1.00000000       0.00000000       0.00000000       0.00000000
H        2.80615512       3.24026883       5.00000000        3       1.00000000       0.00000000       0.00000000       0.00000000
H        0.00000000       1.62013441       7.29121606        2       1.00000000       0.00000000       0.00000000       0.00000000
H        2.80615512       1.62013441       7.29121606        2       1.00000000       0.00000000       0.00000000       0.00000000
H        1.40307756       4.05033604       7.29121606        2       1.00000000       0.00000000       0.00000000       0.00000000
H        4.20923268       4.05033604       7.29121606        2       1.00000000       0.00000000       0.00000000       0.00000000
H        0.00000000       0.00000000       9.58243212        1       1.00000000       0.00000000       0.00000000       0.00000000
H        2.80615512       0.00000000       9.58243212        1       1.00000000       0.00000000       0.00000000       0.00000000
H        1.40307756       2.43020162       9.58243212        1       1.00000000       0.00000000       0.00000000       0.00000000
H        4.20923268       2.43020162       9.58243212        1       1.00000000       0.00000000       0.00000000       0.00000000
H        4.68947751       4.31342505       2.94550829        0       1.00000000      -0.68595350       0.18770133      -1.01622443
H        0.53436949       3.51330423      14.13295729        0       1.00000000      -1.46366579       0.71392592      -2.60496256
H        5.58928722       0.68475252      12.23213170        0       1.00000000      -0.90338128      -1.06993599      -0.32500111
H        2.49607882       0.75529791      14.40470262        0       1.00000000      -0.93734170       2.73968347      -2.52141408
H        2.65683429       1.79969070      12.49427179        0       1.00000000       2.74434647       2.31948260      -0.24477305
H        3.19183185       3.65788246       0.24381661        0       1.00000000      -0.03159970       1.50579994       0.69471187
18
Lattice="5.612310241546866 0.0 0.0 0.0 4.860403243099165 0.0 0.0 0.0 14.582432123328676" Properties=species:S:1:pos:R:3:tags:I:1:masses:R:1:momenta:R:3 KEmax=23.26679191048647 iter=499 volume=397.78090899293073 ns_energy=12.953943364725983 last_walked_iter_clone=415 ns_P=0.0 config_n_global=499 ns_KE=19.319532155069584 pbc="T T T"
H        1.40307756       0.81006721       5.00000000        3       1.00000000       0.00000000       0.00000000       0.00000000
H        4.20923268       0.81006721       5.00000000        3       1.00000000       0.00000000       0.00000000       0.00000000
H        0.00000000       3.24026883       5.00000000        3       1.00000000       0.00000000       0.00000000       0.00000000
H        2.80615512       3.24026883       5.00000000        3       1.00000000       0.00000000       0.00000000       0.00000000
H        0.00000000       1.62013441       7.29121606        2       1.00000000       0.00000000       0.00000000       0.00000000
H        2.80615512       1.62013441       7.29121606        2       1.00000000       0.00000000       0.00000000       0.00000000
H        1.40307756       4.05033604       7.29121606        2       1.00000000       0.00000000       0.00000000       0.00000000
H        4.20923268       4.05033604       7.29121606        2       1.00000000       0.00000000       0.00000000       0.00000000
H        0.00000000       0.00000000       9.58243212        1       1.00000000       0.00000000       0.00000000       0.00000000
H        2.80615512       0.00000000       9.58243212        1       1.00000000       0.00000000       0.00000000       0.00000000
H        1.40307756       2.43020162       9.58243212        1       1.00000000       0.00000000       0.00000000       0.00000000
H        4.20923268       2.43020162       9.58243212        1       1.00000000       0.00000000       0.00000000       0.00000000
H        4.90727052       3.15237547       2.13155238        0       1.00000000      -1.74265412       0.16652264       0.62287719
H        4.44117834       4.11574347      12.01516556        0       1.00000000       1.83671207       2.90336241       1.16821286
H        3.51461465       1.23877715      13.38104984        0       1.00000000      -0.92299200       1.89443004      -2.07299858
H        2.77184418       4.38214274       0.02760377        0       1.00000000      -2.26216114      -1.44431897      -0.53709357
H        5.47611430       2.17270441      11.37888409        0       1.00000000      -0.40410790       1.06826931       0.69341859
H        1.21379337       4.20614706       2.20495506        0       1.00000000      -1.51775456       1.04525369      -0.77929517
18
Lattice="5.612310241546866 0.0 0.0 0.0 4.860403243099165 0.0 0.0 0.0 14.582432123328676" Properties=species:S:1:pos:R:3:tags:I:1:masses:R:1:momenta:R:3 KEmax=23.26679191048647 iter=599 volume=397.78090899293073 ns_energy=11.609181167246033 last_walked_iter_clone=463 ns_P=0.0 config_n_global=599 ns_KE=20.62084000661758 pbc="T T T"
H        1.40307756       0.81006721       5.00000000        3       1.00000000       0.00000000       0.00000000       0.00000000
H        4.20923268       0.81006721       5.00000000        3       1.00000000       0.00000000       0.00000000       0.00000000
H        0.00000000       3.24026883       5.00000000        3       1.00000000       0.00000000       0.00000000       0.00000000
H        2.80615512       3.24026883       5.00000000        3       1.00000000       0.00000000       0.00000000       0.00000000
H        0.00000000       1.62013441       7.29121606        2       1.00000000       0.00000000       0.00000000       0.00000000
H        2.80615512       1.62013441       7.29121606        2       1.00000000       0.00000000       0.00000000       0.00000000
H        1.40307756       4.05033604       7.29121606        2       1.00000000       0.00000000       0.00000000       0.00000000
H        4.20923268       4.05033604       7.29121606        2       1.00000000       0.00000000       0.00000000       0.00000000
H        0.00000000       0.00000000       9.58243212        1       1.00000000       0.00000000       0.00000000       0.00000000
H        2.80615512       0.00000000       9.58243212        1       1.00000000       0.00000000       0.00000000       0.00000000
H        1.40307756       2.43020162       9.58243212        1       1.00000000       0.00000000       0.00000000       0.00000000
H        4.20923268       2.43020162       9.58243212        1       1.00000000       0.00000000       0.00000000       0.00000000
H        4.73571122       0.00879482       2.27205943        0       1.00000000       0.70870856      -1.55746560      -0.93510216
H        2.49719833       0.12972431       0.13035127        0       1.00000000       0.78859008       1.20441293       0.77139235
H        1.28661583       1.07829585      11.72865601        0       1.00000000      -0.19253845      -2.21449088      -2.73878101
H        4.54055455       2.70817182       1.25779339        0       1.00000000       0.77985982       0.19699828       3.41484624
H        5.01694890       1.34496912      14.14567557        0       1.00000000      -2.77129632      -0.59795687      -0.42935548
H        2.02102199       1.69211823       2.25349261        0       1.00000000       0.67863176       1.01688138      -0.55233013
18
Lattice="5.612310241546866 0.0 0.0 0.0 4.860403243099165 0.0 0.0 0.0 14.582432123328676" Properties=species:S:1:pos:R:3:tags:I:1:masses:R:1:momenta:R:3 KEmax=23.26679191048647 iter=699 volume=397.78090899293073 ns_energy=10.265870111898858 last_walked_iter_clone=582 ns_P=0.0 config_n_global=699 ns_KE=18.51699212691934 pbc="T T T"
H        1.40307756       0.81006721       5.00000000        3       1.00000000       0.00000000       0.00000000       0.00000000
H        4.20923268       0.81006721       5.00000000        3       1.00000000       0.00000000       0.00000000       0.00000000
H        0.00000000       3.24026883       5.00000000        3       1.00000000       0.00000000       0.00000000       0.00000000
H        2.80615512       3.24026883       5.00000000        3       1.00000000       0.00000000       0.00000000       0.00000000
H        0.00000000       1.62013441       7.29121606        2       1.00000000       0.00000000       0.00000000       0.00000000
H        2.80615512       1.62013441       7.29121606        2       1.00000000       0.00000000       0.00000000       0.00000000
H        1.40307756       4.05033604       7.29121606        2       1.00000000       0.00000000       0.00000000       0.00000000
H        4.20923268       4.05033604       7.29121606        2       1.00000000       0.00000000       0.00000000       0.00000000
H        0.00000000       0.00000000       9.58243212        1       1.00000000       0.00000000       0.00000000       0.00000000
H        2.80615512       0.00000000       9.58243212        1       1.00000000       0.00000000       0.00000000       0.00000000
H        1.40307756       2.43020162       9.58243212        1       1.00000000       0.00000000       0.00000000       0.00000000
H        4.20923268       2.43020162       9.58243212        1       1.00000000       0.00000000       0.00000000       0.00000000
H        3.62713738       2.05707596       1.53075561        0       1.00000000      -2.20962637       2.05142674      -0.99403000
H        3.28587068       4.02570632      14.63964442        0       1.00000000       0.18368798       3.67518122       0.61367499
H        5.00278260       0.71939728      13.75393307        0       1.00000000      -0.85746310       0.53022325       0.07601811
H        0.63235215       1.48082493       1.06684674        0       1.00000000      -0.18363429       0.20788302       2.07544619
H        3.76940510       3.22712116      11.76243616        0       1.00000000       0.94008629      -1.59711673       0.54936857
H        0.21729154       3.55304641      13.38030369        0       1.00000000      -0.90696554       1.73401748       0.25586670
18
Lattice="5.612310241546866 0.0 0.0 0.0 4.860403243099165 0.0 0.0 0.0 14.582432123328676" Properties=species:S:1:pos:R:3:tags:I:1:masses:R:1:momenta:R:3 KEmax=23.26679191048647 iter=799 volume=397.78090899293073 ns_energy=9.047866951196918 last_walked_iter_clone=653 ns_P=0.0 config_n_global=799 ns_KE=18.593220170596087 pbc="T T T"
H        1.40307756       0.81006721       5.00000000        3       1.00000000       0.00000000       0.00000000       0.00000000
H        4.20923268       0.81006721       5.00000000        3       1.00000000       0.00000000       0.00000000       0.00000000
H        0.00000000       3.24026883       5.00000000        3       1.00000000       0.00000000       0.00000000       0.00000000
H        2.80615512       3.24026883       5.00000000        3       1.00000000       0.00000000       0.00000000       0.00000000
H        0.00000000       1.62013441       7.29121606        2       1.00000000       0.00000000       0.00000000       0.00000000
H        2.80615512       1.62013441       7.29121606        2       1.00000000       0.00000000       0.00000000       0.00000000
H        1.40307756       4.05033604       7.29121606        2       1.00000000       0.00000000       0.00000000       0.00000000
H        4.20923268       4.05033604       7.29121606        2       1.00000000       0.00000000       0.00000000       0.00000000
H        0.00000000       0.00000000       9.58243212        1       1.00000000       0.00000000       0.00000000       0.00000000
H        2.80615512       0.00000000       9.58243212        1       1.00000000       0.00000000       0.00000000       0.00000000
H        1.40307756       2.43020162       9.58243212        1       1.00000000       0.00000000       0.00000000       0.00000000
H        4.20923268       2.43020162       9.58243212        1       1.00000000       0.00000000       0.00000000       0.00000000
H        0.51349249       1.24887109      12.61566829        0       1.00000000       2.30670077       1.52367124      -0.64476514
H        2.37785244       2.42834014       2.02669092        0       1.00000000       0.66247932       1.11475125      -1.40258418
H        3.16735358       1.57994236      14.04379286        0       1.00000000       0.33017102      -0.25795911      -0.12438360
H        3.44958323       3.87385271      13.31858650        0       1.00000000       0.49913369       1.48410713      -0.04216330
H        4.66315513       3.69991430       0.83577075        0       1.00000000      -0.05613502      -0.18602218      -3.31040555
H        0.30997719       0.22857879       2.79654596        0       1.00000000      -1.23994388       0.41859972       3.18209744
18
Lattice="5.612310241546866 0.0 0.0 0.0 4.860403243099165 0.0 0.0 0.0 14.582432123328676" Properties=species:S:1:pos:R:3:tags:I:1:masses:R:1:momenta:R:3 KEmax=23.26679191048647 iter=899 volume=397.78090899293073 ns_energy=7.92676207257069 last_walked_iter_clone=824 ns_P=0.0 config_n_global=899 ns_KE=14.325105988613869 pbc="T T T"
H        1.40307756       0.81006721       5.00000000        3       1.00000000       0.00000000       0.00000000       0.00000000
H        4.20923268       0.81006721       5.00000000        3       1.00000000       0.00000000       0.00000000       0.00000000
H        0.00000000       3.24026883       5.00000000        3       1.00000000       0.00000000       0.00000000       0.00000000
H        2.80615512       3.24026883       5.00000000        3       1.00000000       0.00000000       0.00000000       0.00000000
H        0.00000000       1.62013441       7.29121606        2       1.00000000       0.00000000       0.00000000       0.00000000
H        2.80615512       1.62013441       7.29121606        2       1.00000000       0.00000000       0.00000000       0.00000000
H        1.40307756       4.05033604       7.29121606        2       1.00000000       0.00000000       0.00000000       0.00000000
H        4.20923268       4.05033604       7.29121606        2       1.00000000       0.00000000       0.00000000       0.00000000
H        0.00000000       0.00000000       9.58243212        1       1.00000000       0.00000000       0.00000000       0.00000000
H        2.80615512       0.00000000       9.58243212        1       1.00000000       0.00000000       0.00000000       0.00000000
H        1.40307756       2.43020162       9.58243212        1       1.00000000       0.00000000       0.00000000       0.00000000
H        4.20923268       2.43020162       9.58243212        1       1.00000000       0.00000000       0.00000000       0.00000000
H        5.64872646       0.81876308       2.70456517        0       1.00000000       0.61096310      -0.99295357      -0.95661112
H        1.05528777       4.27337775      12.58638108        0       1.00000000       1.92246025       0.43279699       0.76489629
H        3.97694497       3.01318187      13.81321594        0       1.00000000      -1.22053024      -2.43148117       0.41049161
H        2.48306976       1.32611305      11.54453222        0       1.00000000       1.97084117       0.23778367      -0.19921260
H        3.85950747       3.70174837       2.97456082        0       1.00000000       1.91556661      -0.31907679      -0.68674899
H        0.55626470       2.04044222       1.13765719        0       1.00000000      -0.63071135       2.07826943      -1.18197777
18
Lattice="5.612310241546866 0.0 0.0 0.0 4.860403243099165 0.0 0.0 0.0 14.582432123328676" Properties=species:S:1:pos:R:3:tags:I:1:masses:R:1:momenta:R:3 KEmax=23.26679191048647 iter=999 volume=397.78090899293073 ns_energy=6.996173643393578 last_walked_iter_clone=940 ns_P=0.0 config_n_global=999 ns_KE=12.652850772369504 pbc="T T T"
H        1.40307756       0.81006721       5.00000000        3       1.00000000       0.00000000       0.00000000       0.00000000
H        4.20923268       0.81006721       5.00000000        3       1.00000000       0.00000000       0.00000000       0.00000000
H        0.00000000       3.24026883       5.00000000        3       1.00000000       0.00000000       0.00000000       0.00000000
H        2.80615512       3.24026883       5.00000000        3       1.00000000       0.00000000       0.00000000       0.00000000
H        0.00000000       1.62013441       7.29121606        2       1.00000000       0.00000000       0.00000000       0.00000000
H        2.80615512       1.62013441       7.29121606        2       1.00000000       0.00000000       0.00000000       0.00000000
H        1.40307756       4.05033604       7.29121606        2       1.00000000       0.00000000       0.00000000       0.00000000
H        4.20923268       4.05033604       7.29121606        2       1.00000000       0.00000000       0.00000000       0.00000000
H        0.00000000       0.00000000       9.58243212        1       1.00000000       0.00000000       0.00000000       0.00000000
H        2.80615512       0.00000000       9.58243212        1       1.00000000       0.00000000       0.00000000       0.00000000
H        1.40307756       2.43020162       9.58243212        1       1.00000000       0.00000000       0.00000000       0.00000000
H        4.20923268       2.43020162       9.58243212        1       1.00000000       0.00000000       0.00000000       0.00000000
H        0.60325648       0.95304788      12.87929151        0       1.00000000      -1.43375115       1.01129903      -1.03072015
H        2.12059639       1.42984640      11.59129399        0       1.00000000       1.50410876       0.05993239       0.41230914
H        3.97295546       3.59039372       0.63342270        0       1.00000000      -1.58867635      -0.42562814       0.14694800
H        1.27181952       1.82550616       1.86835544        0       1.00000000       0.15694900      -0.00587678       0.69689410
H        2.61357937      -0.06096259       3.17416588        0       1.00000000       2.27934716      -0.88261375       1.69633992
H        3.52294418       0.58553913      13.36203265        0       1.00000000      -0.95224299       1.04265457       2.15549209
18
Lattice="5.612310241546866 0.0 0.0 0.0 4.860403243099165 0.0 0.0 0.0 14.582432123328676" Properties=species:S:1:pos:R:3:tags:I:1:masses:R:1:momenta:R:3 KEmax=23.26679191048647 iter=1099 volume=397.78090899293073 ns_energy=6.101821625310408 last_walked_iter_clone=924 ns_P=0.0 config_n_global=1099 ns_KE=13.129048619825594 pbc="T T T"
H        1.40307756       0.81006721       5.00000000        3       1.00000000       0.00000000       0.00000000       0.00000000
H        4.20923268       0.81006721       5.00000000        3       1.00000000       0.00000000       0.00000000       0.00000000
H        0.00000000       3.24026883       5.00000000        3       1.00000000       0.00000000       0.00000000       0.00000000
H        2.80615512       3.24026883       5.00000000        3       1.00000000       0.00000000       0.00000000       0.00000000
H        0.00000000       1.62013441       7.29121606        2       1.00000000       0.00000000       0.00000000       0.00000000
H        2.80615512       1.62013441       7.29121606        2       1.00000000       0.00000000       0.00000000       0.00000000
H        1.40307756       4.05033604       7.29121606        2       1.00000000       0.00000000       0.00000000       0.00000000
H        4.20923268       4.05033604       7.29121606        2       1.00000000       0.00000000       0.00000000       0.00000000
H        0.00000000       0.00000000       9.58243212        1       1.00000000       0.00000000       0.00000000       0.00000000
H        2.80615512       0.00000000       9.58243212        1       1.00000000       0.00000000       0.00000000       0.00000000
H        1.40307756       2.43020162       9.58243212        1       1.00000000       0.00000000       0.00000000       0.00000000
H        4.20923268       2.43020162       9.58243212        1       1.00000000       0.00000000       0.00000000       0.00000000
H        3.83227477       2.73526366       1.03126267        0       1.00000000      -0.43548143       0.52804999      -1.17171448
H       -0.03234171       3.78202781      14.65895216        0       1.00000000      -1.07487030       0.90335944       0.32999436
H        0.31941607       2.00437280      12.64714937        0       1.00000000       0.26109342       0.70408681       1.73890625
H        1.81801743       4.44952346       3.14870397        0       1.00000000      -1.62440399      -0.57618513       2.96854387
H        2.25367268       4.70027631       0.78748643        0       1.00000000      -1.02606733       0.65492418      -1.17768701
H        1.74991941       5.38485645      11.77277990        0       1.00000000       1.32358394       1.38289665      -0.65787798
18
Lattice="5.612310241546866 0.0 0.0 0.0 4.860403243099165 0.0 0.0 0.0 14.582432123328676" Properties=species:S:1:pos:R:3:tags:I:1:masses:R:1:momenta:R:3 KEmax=23.26679191048647 iter=1199 volume=397.78090899293073 ns_energy=5.160174091798023 last_walked_iter_clone=1126 ns_P=0.0 config_n_global=1199 ns_KE=13.191698910612295 pbc="T T T"