18
Lattice="5.612310241546866 0.0 0.0 0.0 4.860403243099165 0.0 0.0 0.0 14.582432123328676" Properties=species:S:1:pos:R:3:tags:I:1:masses:R:1:momenta:R:3:forces:R:3 KEmax=23.26679191048647 iter=91078 volume=397.78090899293073 ns_energy=-11.66601797172379 last_walked_iter_clone=90875 energy=-11.666017971744607 stress="0.014010908818867525 -5.398598176670614e-09 8.89558306238628e-09 -5.398598176670614e-09 0.014006218198852532 5.554380804899144e-07 8.89558306238628e-09 5.554380804899144e-07 0.00787632033116828" pbc="T T T"
H        1.40307756       0.81006721       5.00000000        3       1.00000000       0.00000000       0.00000000       0.00000000       0.00000000       0.00000000       0.00000000
H        4.20923268       0.81006721       5.00000000        3       1.00000000       0.00000000       0.00000000       0.00000000       0.00000000       0.00000000       0.00000000
H        0.00000000       3.24026883       5.00000000        3       1.00000000       0.00000000       0.00000000       0.00000000       0.00000000       0.00000000       0.00000000
H        2.80615512       3.24026883       5.00000000        3       1.00000000       0.00000000       0.00000000       0.00000000       0.00000000       0.00000000       0.00000000
H        0.00000000       1.62013441       7.29121606        2       1.00000000       0.00000000       0.00000000       0.00000000       0.00000000       0.00000000       0.00000000
H        2.80615512       1.62013441       7.29121606        2       1.00000000       0.00000000       0.00000000       0.00000000       0.00000000       0.00000000       0.00000000
H        1.40307756       4.05033604       7.29121606        2       1.00000000       0.00000000       0.00000000       0.00000000       0.00000000       0.00000000       0.00000000
H        4.20923268       4.05033604       7.29121606        2       1.00000000       0.00000000       0.00000000       0.00000000       0.00000000       0.00000000       0.00000000
H        0.00000000       0.00000000       9.58243212        1       1.00000000       0.00000000       0.00000000       0.00000000       0.00000000       0.00000000       0.00000000
H        2.80615512       0.00000000       9.58243212        1       1.00000000       0.00000000       0.00000000       0.00000000       0.00000000       0.00000000       0.00000000
H        1.40307756       2.43020162       9.58243212        1       1.00000000       0.00000000       0.00000000       0.00000000       0.00000000       0.00000000       0.00000000
H        4.20923268       2.43020162       9.58243212        1       1.00000000       0.00000000       0.00000000       0.00000000       0.00000000       0.00000000       0.00000000
H        4.21259205       2.44260973       2.79008880        0       1.00000000       0.00000140      -0.00000034       0.00000129       0.00000338       0.00000496      -0.00000230
H        1.39358770       2.41637481       2.76735892        0       1.00000000       0.00000162      -0.00000036      -0.00000214      -0.00000188       0.00000624      -0.00000225
H        0.00949056       4.84657888       2.76735962        0       1.00000000       0.00000054      -0.00000254       0.00000088      -0.00000597      -0.00000577       0.00000281
H        2.80279664       0.01240794       2.79008943        0       1.00000000      -0.00000105       0.00000114      -0.00000157       0.00000506      -0.00000540      -0.00000263
H        4.21599734       0.82839310       0.55683216        0       1.00000000       0.00000154       0.00000123       0.00000289       0.00000087       0.00000146      -0.00000135
H        2.79939074       3.25859568       0.55683212        0       1.00000000      -0.00000139       0.00000010      -0.00000398      -0.00000032      -0.00000165       0.00000442
18
Lattice="5.612310241546866 0.0 0.0 0.0 4.860403243099165 0.0 0.0 0.0 14.582432123328676" Properties=species:S:1:pos:R:3:tags:I:1:masses:R:1:momenta:R:3:forces:R:3 KEmax=23.26679191048647 iter=91078 volume=397.78090899293073 ns_energy=-11.666017971724996 last_walked_iter_clone=90481 energy=-11.666017971744607 stress="0.014010908818867525 -5.398598176670614e-09 8.89558306238628e-09 -5.398598176670614e-09 0.014006218198852532 5.554380804899144e-07 8.89558306238628e-09 5.554380804899144e-07 0.00787632033116828" pbc="T T T"
H        1.40307756       0.81006721       5.00000000        3       1.00000000       0.00000000       0.00000000       0.00000000       0.00000000       0.00000000       0.00000000
H        4.20923268       0.81006721       5.00000000        3       1.00000000       0.00000000       0.00000000       0.00000000       0.00000000       0.00000000       0.00000000
H        0.00000000       3.24026883       5.00000000        3       1.00000000       0.00000000       0.00000000       0.00000000       0.00000000       0.00000000       0.00000000
H        2.80615512       3.24026883       5.00000000        3       1.00000000       0.00000000       0.00000000       0.00000000       0.00000000       0.00000000       0.00000000
H        0.00000000       1.62013441       7.29121606        2       1.00000000       0.00000000       0.00000000       0.00000000       0.00000000       0.00000000       0.00000000
H        2.80615512       1.62013441       7.29121606        2       1.00000000       0.00000000       0.00000000       0.00000000       0.00000000       0.00000000       0.00000000
H        1.40307756       4.05033604       7.29121606        2       1.00000000       0.00000000       0.00000000       0.00000000       0.00000000       0.00000000       0.00000000
H        4.20923268       4.05033604       7.29121606        2       1.00000000       0.00000000       0.00000000       0.00000000       0.00000000       0.00000000       0.00000000
H        0.00000000       0.00000000       9.58243212        1       1.00000000       0.00000000       0.00000000       0.00000000       0.00000000       0.00000000       0.00000000
H        2.80615512       0.00000000       9.58243212        1       1.00000000       0.00000000       0.00000000       0.00000000       0.00000000       0.00000000       0.00000000
H        1.40307756       2.43020162       9.58243212        1       1.00000000       0.00000000       0.00000000       0.00000000       0.00000000       0.00000000       0.00000000
H        4.20923268       2.43020162       9.58243212        1       1.00000000       0.00000000       0.00000000       0.00000000       0.00000000       0.00000000       0.00000000
H        4.21259062       2.44261207       2.79008931        0       1.00000000       0.00000144      -0.00000015       0.00000261       0.00000338       0.00000496      -0.00000230
H        1.39358563       2.41637739       2.76735774        0       1.00000000       0.00000088       0.00000030      -0.00000016      -0.00000188       0.00000624      -0.00000225
H        0.00949056       4.84657741       2.76735992        0       1.00000000      -0.00000342      -0.00000145       0.00000046      -0.00000597      -0.00000577       0.00000281
H        2.80279862       0.01240980       2.79009041        0       1.00000000      -0.00000087      -0.00000082      -0.00000100       0.00000506      -0.00000540      -0.00000263
H        4.21599777       0.82839689       0.55683107        0       1.00000000      -0.00000092       0.00000221      -0.00000201       0.00000087       0.00000146      -0.00000135
H        2.79939172       3.25859639       0.55683239        0       1.00000000       0.00000216       0.00000018      -0.00000079      -0.00000032      -0.00000165       0.00000442
18
Lattice="5.612310241546866 0.0 0.0 0.0 4.860403243099165 0.0 0.0 0.0 14.582432123328676" Properties=species:S:1:pos:R:3:tags:I:1:masses:R:1:momenta:R:3:forces:R:3 KEmax=23.26679191048647 iter=91078 volume=397.78090899293073 ns_energy=-11.666017971724012 last_walked_iter_clone=90986 energy=-11.666017971744607 stress="0.014010908818867525 -5.398598176670614e-09 8.89558306238628e-09 -5.398598176670614e-09 0.014006218198852532 5.554380804899144e-07 8.89558306238628e-09 5.554380804899144e-07 0.00787632033116828" pbc="T T T"
H        1.40307756       0.81006721       5.00000000        3       1.00000000       0.00000000       0.00000000       0.00000000       0.00000000       0.00000000       0.00000000
H        4.20923268       0.81006721       5.00000000        3       1.00000000       0.00000000       0.00000000       0.00000000       0.00000000       0.00000000       0.00000000
H        0.00000000       3.24026883       5.00000000        3       1.00000000       0.00000000       0.00000000       0.00000000       0.00000000       0.00000000       0.00000000
H        2.80615512       3.24026883       5.00000000        3       1.00000000       0.00000000       0.00000000       0.00000000       0.00000000       0.00000000       0.00000000
H        0.00000000       1.62013441       7.29121606        2       1.00000000       0.00000000       0.00000000       0.00000000       0.00000000       0.00000000       0.00000000
H        2.80615512       1.62013441       7.29121606        2       1.00000000       0.00000000       0.00000000       0.00000000       0.00000000       0.00000000       0.00000000
H        1.40307756       4.05033604       7.29121606        2       1.00000000       0.00000000       0.00000000       0.00000000       0.00000000       0.00000000       0.00000000
H        4.20923268       4.05033604       7.29121606        2       1.00000000       0.00000000       0.00000000       0.00000000       0.00000000       0.00000000       0.00000000
H        0.00000000       0.00000000       9.58243212        1       1.00000000       0.00000000       0.00000000       0.00000000       0.00000000       0.00000000       0.00000000
H        2.80615512       0.00000000       9.58243212        1       1.00000000       0.00000000       0.00000000       0.00000000       0.00000000       0.00000000       0.00000000
H        1.40307756       2.43020162       9.58243212        1       1.00000000       0.00000000       0.00000000       0.00000000       0.00000000       0.00000000       0.00000000
H        4.20923268       2.43020162       9.58243212        1       1.00000000       0.00000000       0.00000000       0.00000000       0.00000000       0.00000000       0.00000000
H        4.21259191       2.44261113       2.79009013        0       1.00000000      -0.00000246       0.00000053      -0.00000215       0.00000338       0.00000496      -0.00000230
H        1.39358870       2.41637743       2.76735901        0       1.00000000       0.00000228       0.00000029       0.00000129      -0.00000188       0.00000624      -0.00000225
H        0.00949193       4.84657869       2.76735931        0       1.00000000       0.00000037      -0.00000294       0.00000032      -0.00000597      -0.00000577       0.00000281
H        2.80279735       0.01240841       2.79008973        0       1.00000000       0.00000203       0.00000080      -0.00000190       0.00000506      -0.00000540      -0.00000263
H        4.21599784       0.82839467       0.55683126        0       1.00000000       0.00000054       0.00000299       0.00000304       0.00000087       0.00000146      -0.00000135
H        2.79939375       3.25859601       0.55683182        0       1.00000000       0.00000250       0.00000078       0.00000073      -0.00000032      -0.00000165       0.00000442
18
Lattice="5.612310241546866 0.0 0.0 0.0 4.860403243099165 0.0 0.0 0.0 14.582432123328676" Properties=species:S:1:pos:R:3:tags:I:1:masses:R:1:momenta:R:3:forces:R:3 KEmax=23.26679191048647 iter=91078 volume=397.78090899293073 ns_energy=-11.666017971723916 last_walked_iter_clone=90831 energy=-11.666017971744607 stress="0.014010908818867525 -5.398598176670614e-09 8.89558306238628e-09 -5.398598176670614e-09 0.014006218198852532 5.554380804899144e-07 8.89558306238628e-09 5.554380804899144e-07 0.00787632033116828" pbc="T T T"
H        1.40307756       0.81006721       5.00000000        3       1.00000000       0.00000000       0.00000000       0.00000000       0.00000000       0.00000000       0.00000000
H        4.20923268       0.81006721       5.00000000        3       1.00000000       0.00000000       0.00000000       0.00000000       0.00000000       0.00000000       0.00000000
H        0.00000000       3.24026883       5.00000000        3       1.00000000       0.00000000       0.00000000       0.00000000       0.00000000       0.00000000       0.00000000
H        2.80615512       3.24026883       5.00000000        3       1.00000000       0.00000000       0.00000000       0.00000000       0.00000000       0.00000000       0.00000000
H        0.00000000       1.62013441       7.29121606        2       1.00000000       0.00000000       0.00000000       0.00000000       0.00000000       0.00000000       0.00000000
H        2.80615512       1.62013441       7.29121606        2       1.00000000       0.00000000       0.00000000       0.00000000       0.00000000       0.00000000       0.00000000
H        1.40307756       4.05033604       7.29121606        2       1.00000000       0.00000000       0.00000000       0.00000000       0.00000000       0.00000000       0.00000000
H        4.20923268       4.05033604       7.29121606        2       1.00000000       0.00000000       0.00000000       0.00000000       0.00000000       0.00000000       0.00000000
H        0.00000000       0.00000000       9.58243212        1       1.00000000       0.00000000       0.00000000       0.00000000       0.00000000       0.00000000       0.00000000
H        2.80615512       0.00000000       9.58243212        1       1.00000000       0.00000000       0.00000000       0.00000000       0.00000000       0.00000000       0.00000000
H        1.40307756       2.43020162       9.58243212        1       1.00000000       0.00000000       0.00000000       0.00000000       0.00000000       0.00000000       0.00000000
H        4.20923268       2.43020162       9.58243212        1       1.00000000       0.00000000       0.00000000       0.00000000       0.00000000       0.00000000       0.00000000
H        4.21259066       2.44261004       2.79008994        0       1.00000000      -0.00000389      -0.00000299      -0.00000204       0.00000338       0.00000496      -0.00000230
H        1.39358828       2.41637698       2.76735955        0       1.00000000      -0.00000010      -0.00000038       0.00000071      -0.00000188       0.00000624      -0.00000225
H        0.00949037       4.84657666       2.76735982        0       1.00000000      -0.00000096       0.00000100       0.00000083      -0.00000597      -0.00000577       0.00000281
H        2.80279916       0.01240982       2.79008982        0       1.00000000      -0.00000039       0.00000026      -0.00000059       0.00000506      -0.00000540      -0.00000263
H        4.21599988       0.82839786       0.55683075        0       1.00000000       0.00000172       0.00000278      -0.00000049       0.00000087       0.00000146      -0.00000135
H        2.79939131       3.25859861       0.55683135        0       1.00000000       0.00000087       0.00000010       0.00000299      -0.00000032      -0.00000165       0.00000442
18
Lattice="5.612310241546866 0.0 0.0 0.0 4.860403243099165 0.0 0.0 0.0 14.582432123328676" Properties=species:S:1:pos:R:3:tags:I:1:masses:R:1:momenta:R:3:forces:R:3 KEmax=23.26679191048647 iter=91078 volume=397.78090899293073 ns_energy=-11.666017971724091 last_walked_iter_clone=90980 energy=-11.666017971744607 stress="0.014010908818867525 -5.398598176670614e-09 8.89558306238628e-09 -5.398598176670614e-09 0.014006218198852532 5.554380804899144e-07 8.89558306238628e-09 5.554380804899144e-07 0.00787632033116828" pbc="T T T"
H        1.40307756       0.81006721       5.00000000        3       1.00000000       0.00000000       0.00000000       0.00000000       0.00000000       0.00000000       0.00000000
H        4.20923268       0.81006721       5.00000000        3       1.00000000       0.00000000       0.00000000       0.00000000       0.00000000       0.00000000       0.00000000
H        0.00000000       3.24026883       5.00000000        3       1.00000000       0.00000000       0.00000000       0.00000000       0.00000000       0.00000000       0.00000000
H        2.80615512       3.24026883       5.00000000        3       1.00000000       0.00000000       0.00000000       0.00000000       0.00000000       0.00000000       0.00000000
H        0.00000000       1.62013441       7.29121606        2       1.00000000       0.00000000       0.00000000       0.00000000       0.00000000       0.00000000       0.00000000
H        2.80615512       1.62013441       7.29121606        2       1.00000000       0.00000000       0.00000000       0.00000000       0.00000000       0.00000000       0.00000000
H        1.40307756       4.05033604       7.29121606        2       1.00000000       0.00000000       0.00000000       0.00000000       0.00000000       0.00000000       0.00000000
H        4.20923268       4.05033604       7.29121606        2       1.00000000       0.00000000       0.00000000       0.00000000       0.00000000       0.00000000       0.00000000
H        0.00000000       0.00000000       9.58243212        1       1.00000000       0.00000000       0.00000000       0.00000000       0.00000000       0.00000000       0.00000000
H        2.80615512       0.00000000       9.58243212        1       1.00000000       0.00000000       0.00000000       0.00000000       0.00000000       0.00000000       0.00000000
H        1.40307756       2.43020162       9.58243212        1       1.00000000       0.00000000       0.00000000       0.00000000       0.00000000       0.00000000       0.00000000
H        4.20923268       2.43020162       9.58243212        1       1.00000000       0.00000000       0.00000000       0.00000000       0.00000000       0.00000000       0.00000000
H        4.21258994       2.44261175       2.79008833        0       1.00000000      -0.00000178      -0.00000187      -0.00000096       0.00000338       0.00000496      -0.00000230
H        1.39358537       2.41637699       2.76736011        0       1.00000000       0.00000197      -0.00000017       0.00000084      -0.00000188       0.00000624      -0.00000225
H        0.00948946       4.84657796       2.76735805        0       1.00000000      -0.00000030       0.00000359      -0.00000083      -0.00000597      -0.00000577       0.00000281
H        2.80279519       0.01240833       2.79008862        0       1.00000000       0.00000134      -0.00000187       0.00000146       0.00000506      -0.00000540      -0.00000263
H        4.21599757       0.82839520       0.55683239        0       1.00000000      -0.00000055       0.00000239       0.00000060       0.00000087       0.00000146      -0.00000135
H        2.79938728       3.25859714       0.55683096        0       1.00000000      -0.00000019      -0.00000091      -0.00000122      -0.00000032      -0.00000165       0.00000442
18
Lattice="5.612310241546866 0.0 0.0 0.0 4.860403243099165 0.0 0.0 0.0 14.582432123328676" Properties=species:S:1:pos:R:3:tags:I:1:masses:R:1:momenta:R:3:forces:R:3 KEmax=23.26679191048647 iter=91078 volume=397.78090899293073 ns_energy=-11.666017971724644 last_walked_iter_clone=90989 energy=-11.666017971744607 stress="0.014010908818867525 -5.398598176670614e-09 8.89558306238628e-09 -5.398598176670614e-09 0.014006218198852532 5.554380804899144e-07 8.89558306238628e-09 5.554380804899144e-07 0.00787632033116828" pbc="T T T"
H        1.40307756       0.81006721       5.00000000        3       1.00000000       0.00000000       0.00000000       0.00000000       0.00000000       0.00000000       0.00000000
H        4.20923268       0.81006721       5.00000000        3       1.00000000       0.00000000       0.00000000       0.00000000       0.00000000       0.00000000       0.00000000
H        0.00000000       3.24026883       5.00000000        3       1.00000000       0.00000000       0.00000000       0.00000000       0.00000000       0.00000000       0.00000000
H        2.80615512       3.24026883       5.00000000        3       1.00000000       0.00000000       0.00000000       0.00000000       0.00000000       0.00000000       0.00000000
H        0.00000000       1.62013441       7.29121606        2       1.00000000       0.00000000       0.00000000       0.00000000       0.00000000       0.00000000       0.00000000
H        2.80615512       1.62013441       7.29121606        2       1.00000000       0.00000000       0.00000000       0.00000000       0.00000000       0.00000000       0.00000000
H        1.40307756       4.05033604       7.29121606        2       1.00000000       0.00000000       0.00000000       0.00000000       0.00000000       0.00000000       0.00000000
H        4.20923268       4.05033604       7.29121606        2       1.00000000       0.00000000       0.00000000       0.00000000       0.00000000       0.00000000       0.00000000
H        0.00000000       0.00000000       9.58243212        1       1.00000000       0.00000000       0.00000000       0.00000000       0.00000000       0.00000000       0.00000000
H        2.80615512       0.00000000       9.58243212        1       1.00000000       0.00000000       0.00000000       0.00000000       0.00000000       0.00000000       0.00000000
H        1.40307756       2.43020162       9.58243212        1       1.00000000       0.00000000       0.00000000       0.00000000       0.00000000       0.00000000       0.00000000
H        4.20923268       2.43020162       9.58243212        1       1.00000000       0.00000000       0.00000000       0.00000000       0.00000000       0.00000000       0.00000000
H        4.21258776       2.44261067       2.79008903        0       1.00000000       0.00000188       0.00000107       0.00000277       0.00000338       0.00000496      -0.00000230
H        1.39358461       2.41637630       2.76736053        0       1.00000000      -0.00000260      -0.00000173       0.00000078      -0.00000188       0.00000624      -0.00000225
H        0.00949024       4.84657652       2.76735909        0       1.00000000      -0.00000108       0.00000034       0.00000043      -0.00000597      -0.00000577       0.00000281
H        2.80279660       0.01240969       2.79008904        0       1.00000000      -0.00000337       0.00000293       0.00000092       0.00000506      -0.00000540      -0.00000263
H        4.21599619       0.82839393       0.55683031        0       1.00000000      -0.00000249      -0.00000026      -0.00000172       0.00000087       0.00000146      -0.00000135
H        2.79938835       3.25859495       0.55683245        0       1.00000000      -0.00000052      -0.00000126       0.00000084      -0.00000032      -0.00000165       0.00000442
18
Lattice="5.612310241546866 0.0 0.0 0.0 4.860403243099165 0.0 0.0 0.0 14.582432123328676" Properties=species:S:1:pos:R:3:tags:I:1:masses:R:1:momenta:R:3:forces:R:3 KEmax=23.26679191048647 iter=91078 volume=397.78090899293073 ns_energy=-11.66601797172369 last_walked_iter_clone=90899 energy=-11.666017971744607 stress="0.014010908818867525 -5.398598176670614e-09 8.89558306238628e-09 -5.398598176670614e-09 0.014006218198852532 5.554380804899144e-07 8.89558306238628e-09 5.554380804899144e-07 0.00787632033116828" pbc="T T T"
H        1.40307756       0.81006721       5.00000000        3       1.00000000       0.00000000       0.00000000       0.00000000       0.00000000       0.00000000       0.00000000
H        4.20923268       0.81006721       5.00000000        3       1.00000000       0.00000000       0.00000000       0.00000000       0.00000000       0.00000000       0.00000000
H        0.00000000       3.24026883       5.00000000        3       1.00000000       0.00000000       0.00000000       0.00000000       0.00000000       0.00000000       0.00000000
H        2.80615512       3.24026883       5.00000000        3       1.00000000       0.00000000       0.00000000       0.00000000       0.00000000       0.00000000       0.00000000
H        0.00000000       1.62013441       7.29121606        2       1.00000000       0.00000000       0.00000000       0.00000000       0.00000000       0.00000000       0.00000000
H        2.80615512       1.62013441       7.29121606        2       1.00000000       0.00000000       0.00000000       0.00000000       0.00000000       0.00000000       0.00000000
H        1.40307756       4.05033604       7.29121606        2       1.00000000       0.00000000       0.00000000       0.00000000       0.00000000       0.00000000       0.00000000
H        4.20923268       4.05033604       7.29121606        2       1.00000000       0.00000000       0.00000000       0.00000000       0.00000000       0.00000000       0.00000000
H        0.00000000       0.00000000       9.58243212        1       1.00000000       0.00000000       0.00000000       0.00000000       0.00000000       0.00000000       0.00000000
H        2.80615512       0.00000000       9.58243212        1       1.00000000       0.00000000       0.00000000       0.00000000       0.00000000       0.00000000       0.00000000
H        1.40307756       2.43020162       9.58243212        1       1.00000000       0.00000000       0.00000000       0.00000000       0.00000000       0.00000000       0.00000000
H        4.20923268       2.43020162       9.58243212        1       1.00000000       0.00000000       0.00000000       0.00000000       0.00000000       0.00000000       0.00000000
H        4.21259105       2.44261157       2.79009061        0       1.00000000       0.00000092      -0.00000049       0.00000252       0.00000338       0.00000496      -0.00000230
H        1.39358875       2.41637792       2.76735775        0       1.00000000      -0.00000376      -0.00000244       0.00000115      -0.00000188       0.00000624      -0.00000225
H        0.00949132       4.84657879       2.76736031        0       1.00000000      -0.00000132       0.00000015       0.00000000      -0.00000597      -0.00000577       0.00000281
H        2.80279723       0.01240992       2.79008941        0       1.00000000      -0.00000103      -0.00000034       0.00000258       0.00000506      -0.00000540      -0.00000263
H        4.21599985       0.82839792       0.55683116        0       1.00000000       0.00000030       0.00000183      -0.00000116       0.00000087       0.00000146      -0.00000135
H        2.79939394       3.25859921       0.55683119        0       1.00000000      -0.00000233       0.00000109      -0.00000334      -0.00000032      -0.00000165       0.00000442
18
Lattice="5.612310241546866 0.0 0.0 0.0 4.860403243099165 0.0 0.0 0.0 14.582432123328676" Properties=species:S:1:pos:R:3:tags:I:1:masses:R:1:momenta:R:3:forces:R:3 KEmax=23.26679191048647 iter=91078 volume=397.78090899293073 ns_energy=-11.66601797172426 last_walked_iter_clone=91021 energy=-11.666017971744607 stress="0.014010908818867525 -5.398598176670614e-09 8.89558306238628e-09 -5.398598176670614e-09 0.014006218198852532 5.554380804899144e-07 8.89558306238628e-09 5.554380804899144e-07 0.00787632033116828" pbc="T T T"
H        1.40307756       0.81006721       5.00000000        3       1.00000000       0.00000000       0.00000000       0.00000000       0.00000000       0.00000000       0.00000000
H        4.20923268       0.81006721       5.00000000        3       1.00000000       0.00000000       0.00000000       0.00000000       0.00000000       0.00000000       0.00000000
H        0.00000000       3.24026883       5.00000000        3       1.00000000       0.00000000       0.00000000       0.00000000       0.00000000       0.00000000       0.00000000
H        2.80615512       3.24026883       5.00000000        3       1.00000000       0.00000000       0.00000000       0.00000000       0.00000000       0.00000000       0.00000000
H        0.00000000       1.62013441       7.29121606        2       1.00000000       0.00000000       0.00000000       0.00000000       0.00000000       0.00000000       0.00000000
H        2.80615512       1.62013441       7.29121606        2       1.00000000       0.00000000       0.00000000       0.00000000       0.00000000       0.00000000       0.00000000
H        1.40307756       4.05033604       7.29121606        2       1.00000000       0.00000000       0.00000000       0.00000000       0.00000000       0.00000000       0.00000000
H        4.20923268       4.05033604       7.29121606        2       1.00000000       0.00000000       0.00000000       0.00000000       0.00000000       0.00000000       0.00000000
H        0.00000000       0.00000000       9.58243212        1       1.00000000       0.00000000       0.00000000       0.00000000       0.00000000       0.00000000       0.00000000
H        2.80615512       0.00000000       9.58243212        1       1.00000000       0.00000000       0.00000000       0.00000000       0.00000000       0.00000000       0.00000000
H        1.40307756       2.43020162       9.58243212        1       1.00000000       0.00000000       0.00000000       0.00000000       0.00000000       0.00000000       0.00000000
H        4.20923268       2.43020162       9.58243212        1       1.00000000       0.00000000       0.00000000       0.00000000       0.00000000       0.00000000       0.00000000
H        4.21259039       2.44261157       2.79008898        0       1.00000000      -0.00000348       0.00000129      -0.00000145       0.00000338       0.00000496      -0.00000230
H        1.39358874       2.41637622       2.76735880        0       1.00000000       0.00000087       0.00000086       0.00000049      -0.00000188       0.00000624      -0.00000225
H        0.00949097       4.84657917       2.76735970        0       1.00000000      -0.00000365       0.00000144      -0.00000160      -0.00000597      -0.00000577       0.00000281