18
Lattice="5.612310241546866 0.0 0.0 0.0 4.860403243099165 0.0 0.0 0.0 14.582432123328676" Properties=species:S:1:pos:R:3:tags:I:1:masses:R:1:momenta:R:3:forces:R:3 KEmax=23.26679191048647 iter=119999 volume=397.78090899293073 ns_energy=-11.666017971763408 last_walked_iter_clone=119843 energy=-11.66601797176022 stress="0.014010908957133313 2.3497702755502223e-09 -1.834072202818079e-08 2.3497702755502223e-09 0.014006222206886722 5.614621638044737e-07 -1.834072202818079e-08 5.614621638044737e-07 0.00787632697913075" pbc="T T T"
H        1.40307756       0.81006721       5.00000000        3       1.00000000       0.00000000       0.00000000       0.00000000       0.00000000       0.00000000       0.00000000
H        4.20923268       0.81006721       5.00000000        3       1.00000000       0.00000000       0.00000000       0.00000000       0.00000000       0.00000000       0.00000000
H        0.00000000       3.24026883       5.00000000        3       1.00000000       0.00000000       0.00000000       0.00000000       0.00000000       0.00000000       0.00000000
H        2.80615512       3.24026883       5.00000000        3       1.00000000       0.00000000       0.00000000       0.00000000       0.00000000       0.00000000       0.00000000
H        0.00000000       1.62013441       7.29121606        2       1.00000000       0.00000000       0.00000000       0.00000000       0.00000000       0.00000000       0.00000000
H        2.80615512       1.62013441       7.29121606        2       1.00000000       0.00000000       0.00000000       0.00000000       0.00000000       0.00000000       0.00000000
H        1.40307756       4.05033604       7.29121606        2       1.00000000       0.00000000       0.00000000       0.00000000       0.00000000       0.00000000       0.00000000
H        4.20923268       4.05033604       7.29121606        2       1.00000000       0.00000000       0.00000000       0.00000000       0.00000000       0.00000000       0.00000000
H        0.00000000       0.00000000       9.58243212        1       1.00000000       0.00000000       0.00000000       0.00000000       0.00000000       0.00000000       0.00000000
H        2.80615512       0.00000000       9.58243212        1       1.00000000       0.00000000       0.00000000       0.00000000       0.00000000       0.00000000       0.00000000
H        1.40307756       2.43020162       9.58243212        1       1.00000000       0.00000000       0.00000000       0.00000000       0.00000000       0.00000000       0.00000000
H        4.20923268       2.43020162       9.58243212        1       1.00000000       0.00000000       0.00000000       0.00000000       0.00000000       0.00000000       0.00000000
H        4.21259152       2.44261095       2.79008904        0       1.00000000      -0.00000076      -0.00000087      -0.00000051      -0.00000051       0.00000461       0.00000224
H        1.39358732       2.41637616       2.76735961        0       1.00000000      -0.00000014       0.00000054       0.00000048       0.00000136       0.00000334      -0.00000035
H        0.00949083       4.84657748       2.76735967        0       1.00000000       0.00000030      -0.00000096      -0.00000042      -0.00000297      -0.00000516       0.00000090
H        2.80279777       0.01240939       2.79008939        0       1.00000000       0.00000025       0.00000036       0.00000049       0.00000177      -0.00000275      -0.00000119
H        4.21599762       0.82839383       0.55683161        0       1.00000000      -0.00000063       0.00000052      -0.00000196       0.00000010      -0.00000126      -0.00000078
H        2.79939125       3.25859604       0.55683178        0       1.00000000      -0.00000026      -0.00000038      -0.00000007      -0.00000157       0.00000161       0.00000149
18
Lattice="5.612310241546866 0.0 0.0 0.0 4.860403243099165 0.0 0.0 0.0 14.582432123328676" Properties=species:S:1:pos:R:3:tags:I:1:masses:R:1:momenta:R:3:forces:R:3 KEmax=23.26679191048647 iter=119999 volume=397.78090899293073 ns_energy=-11.66601797176345 last_walked_iter_clone=119576 energy=-11.66601797176022 stress="0.014010908957133313 2.3497702755502223e-09 -1.834072202818079e-08 2.3497702755502223e-09 0.014006222206886722 5.614621638044737e-07 -1.834072202818079e-08 5.614621638044737e-07 0.00787632697913075" pbc="T T T"
H        1.40307756       0.81006721       5.00000000        3       1.00000000       0.00000000       0.00000000       0.00000000       0.00000000       0.00000000       0.00000000
H        4.20923268       0.81006721       5.00000000        3       1.00000000       0.00000000       0.00000000       0.00000000       0.00000000       0.00000000       0.00000000
H        0.00000000       3.24026883       5.00000000        3       1.00000000       0.00000000       0.00000000       0.00000000       0.00000000       0.00000000       0.00000000
H        2.80615512       3.24026883       5.00000000        3       1.00000000       0.00000000       0.00000000       0.00000000       0.00000000       0.00000000       0.00000000
H        0.00000000       1.62013441       7.29121606        2       1.00000000       0.00000000       0.00000000       0.00000000       0.00000000       0.00000000       0.00000000
H        2.80615512       1.62013441       7.29121606        2       1.00000000       0.00000000       0.00000000       0.00000000       0.00000000       0.00000000       0.00000000
H        1.40307756       4.05033604       7.29121606        2       1.00000000       0.00000000       0.00000000       0.00000000       0.00000000       0.00000000       0.00000000
H        4.20923268       4.05033604       7.29121606        2       1.00000000       0.00000000       0.00000000       0.00000000       0.00000000       0.00000000       0.00000000
H        0.00000000       0.00000000       9.58243212        1       1.00000000       0.00000000       0.00000000       0.00000000       0.00000000       0.00000000       0.00000000
H        2.80615512       0.00000000       9.58243212        1       1.00000000       0.00000000       0.00000000       0.00000000       0.00000000       0.00000000       0.00000000
H        1.40307756       2.43020162       9.58243212        1       1.00000000       0.00000000       0.00000000       0.00000000       0.00000000       0.00000000       0.00000000
H        4.20923268       2.43020162       9.58243212        1       1.00000000       0.00000000       0.00000000       0.00000000       0.00000000       0.00000000       0.00000000
H        4.21259102       2.44261138       2.79008932        0       1.00000000      -0.00000003      -0.00000096      -0.00000052      -0.00000051       0.00000461       0.00000224
H        1.39358735       2.41637654       2.76735895        0       1.00000000      -0.00000044      -0.00000026      -0.00000055       0.00000136       0.00000334      -0.00000035
H        0.00949042       4.84657812       2.76735902        0       1.00000000       0.00000033      -0.00000143      -0.00000091      -0.00000297      -0.00000516       0.00000090
H        2.80279730       0.01240988       2.79008954        0       1.00000000       0.00000026      -0.00000026      -0.00000008       0.00000177      -0.00000275      -0.00000119
H        4.21599691       0.82839519       0.55683183        0       1.00000000      -0.00000059       0.00000063       0.00000168       0.00000010      -0.00000126      -0.00000078
H        2.79939022       3.25859708       0.55683187        0       1.00000000       0.00000071       0.00000099       0.00000022      -0.00000157       0.00000161       0.00000149
18
Lattice="5.612310241546866 0.0 0.0 0.0 4.860403243099165 0.0 0.0 0.0 14.582432123328676" Properties=species:S:1:pos:R:3:tags:I:1:masses:R:1:momenta:R:3:forces:R:3 KEmax=23.26679191048647 iter=119999 volume=397.78090899293073 ns_energy=-11.666017971763381 last_walked_iter_clone=119932 energy=-11.66601797176022 stress="0.014010908957133313 2.3497702755502223e-09 -1.834072202818079e-08 2.3497702755502223e-09 0.014006222206886722 5.614621638044737e-07 -1.834072202818079e-08 5.614621638044737e-07 0.00787632697913075" pbc="T T T"
H        1.40307756       0.81006721       5.00000000        3       1.00000000       0.00000000       0.00000000       0.00000000       0.00000000       0.00000000       0.00000000
H        4.20923268       0.81006721       5.00000000        3       1.00000000       0.00000000       0.00000000       0.00000000       0.00000000       0.00000000       0.00000000
H        0.00000000       3.24026883       5.00000000        3       1.00000000       0.00000000       0.00000000       0.00000000       0.00000000       0.00000000       0.00000000
H        2.80615512       3.24026883       5.00000000        3       1.00000000       0.00000000       0.00000000       0.00000000       0.00000000       0.00000000       0.00000000
H        0.00000000       1.62013441       7.29121606        2       1.00000000       0.00000000       0.00000000       0.00000000       0.00000000       0.00000000       0.00000000
H        2.80615512       1.62013441       7.29121606        2       1.00000000       0.00000000       0.00000000       0.00000000       0.00000000       0.00000000       0.00000000
H        1.40307756       4.05033604       7.29121606        2       1.00000000       0.00000000       0.00000000       0.00000000       0.00000000       0.00000000       0.00000000
H        4.20923268       4.05033604       7.29121606        2       1.00000000       0.00000000       0.00000000       0.00000000       0.00000000       0.00000000       0.00000000
H        0.00000000       0.00000000       9.58243212        1       1.00000000       0.00000000       0.00000000       0.00000000       0.00000000       0.00000000       0.00000000
H        2.80615512       0.00000000       9.58243212        1       1.00000000       0.00000000       0.00000000       0.00000000       0.00000000       0.00000000       0.00000000
H        1.40307756       2.43020162       9.58243212        1       1.00000000       0.00000000       0.00000000       0.00000000       0.00000000       0.00000000       0.00000000
H        4.20923268       2.43020162       9.58243212        1       1.00000000       0.00000000       0.00000000       0.00000000       0.00000000       0.00000000       0.00000000
H        4.21259102       2.44261138       2.79008932        0       1.00000000       0.00000075      -0.00000044       0.00000052      -0.00000051       0.00000461       0.00000224
H        1.39358735       2.41637654       2.76735895        0       1.00000000       0.00000074      -0.00000010      -0.00000141       0.00000136       0.00000334      -0.00000035
H        0.00949042       4.84657812       2.76735902        0       1.00000000       0.00000041       0.00000029      -0.00000003      -0.00000297      -0.00000516       0.00000090
H        2.80279730       0.01240988       2.79008954        0       1.00000000      -0.00000085       0.00000144       0.00000067       0.00000177      -0.00000275      -0.00000119
H        4.21599691       0.82839519       0.55683183        0       1.00000000      -0.00000050      -0.00000005      -0.00000016       0.00000010      -0.00000126      -0.00000078
H        2.79939022       3.25859708       0.55683187        0       1.00000000       0.00000022      -0.00000156       0.00000057      -0.00000157       0.00000161       0.00000149
18
Lattice="5.612310241546866 0.0 0.0 0.0 4.860403243099165 0.0 0.0 0.0 14.582432123328676" Properties=species:S:1:pos:R:3:tags:I:1:masses:R:1:momenta:R:3:forces:R:3 KEmax=23.26679191048647 iter=119999 volume=397.78090899293073 ns_energy=-11.666017971763395 last_walked_iter_clone=119621 energy=-11.66601797176022 stress="0.014010908957133313 2.3497702755502223e-09 -1.834072202818079e-08 2.3497702755502223e-09 0.014006222206886722 5.614621638044737e-07 -1.834072202818079e-08 5.614621638044737e-07 0.00787632697913075" pbc="T T T"
H        1.40307756       0.81006721       5.00000000        3       1.00000000       0.00000000       0.00000000       0.00000000       0.00000000       0.00000000       0.00000000
H        4.20923268       0.81006721       5.00000000        3       1.00000000       0.00000000       0.00000000       0.00000000       0.00000000       0.00000000       0.00000000
H        0.00000000       3.24026883       5.00000000        3       1.00000000       0.00000000       0.00000000       0.00000000       0.00000000       0.00000000       0.00000000
H        2.80615512       3.24026883       5.00000000        3       1.00000000       0.00000000       0.00000000       0.00000000       0.00000000       0.00000000       0.00000000
H        0.00000000       1.62013441       7.29121606        2       1.00000000       0.00000000       0.00000000       0.00000000       0.00000000       0.00000000       0.00000000
H        2.80615512       1.62013441       7.29121606        2       1.00000000       0.00000000       0.00000000       0.00000000       0.00000000       0.00000000       0.00000000
H        1.40307756       4.05033604       7.29121606        2       1.00000000       0.00000000       0.00000000       0.00000000       0.00000000       0.00000000       0.00000000
H        4.20923268       4.05033604       7.29121606        2       1.00000000       0.00000000       0.00000000       0.00000000       0.00000000       0.00000000       0.00000000
H        0.00000000       0.00000000       9.58243212        1       1.00000000       0.00000000       0.00000000       0.00000000       0.00000000       0.00000000       0.00000000
H        2.80615512       0.00000000       9.58243212        1       1.00000000       0.00000000       0.00000000       0.00000000       0.00000000       0.00000000       0.00000000
H        1.40307756       2.43020162       9.58243212        1       1.00000000       0.00000000       0.00000000       0.00000000       0.00000000       0.00000000       0.00000000
H        4.20923268       2.43020162       9.58243212        1       1.00000000       0.00000000       0.00000000       0.00000000       0.00000000       0.00000000       0.00000000
H        4.21259102       2.44261138       2.79008932        0       1.00000000      -0.00000163      -0.00000102       0.00000017      -0.00000051       0.00000461       0.00000224
H        1.39358735       2.41637654       2.76735895        0       1.00000000      -0.00000078      -0.00000050      -0.00000129       0.00000136       0.00000334      -0.00000035
H        0.00949042       4.84657812       2.76735902        0       1.00000000       0.00000057      -0.00000004       0.00000054      -0.00000297      -0.00000516       0.00000090
H        2.80279730       0.01240988       2.79008954        0       1.00000000       0.00000037      -0.00000026       0.00000127       0.00000177      -0.00000275      -0.00000119
H        4.21599691       0.82839519       0.55683183        0       1.00000000       0.00000010       0.00000084       0.00000040       0.00000010      -0.00000126      -0.00000078
H        2.79939022       3.25859708       0.55683187        0       1.00000000       0.00000025       0.00000055       0.00000038      -0.00000157       0.00000161       0.00000149
18
Lattice="5.612310241546866 0.0 0.0 0.0 4.860403243099165 0.0 0.0 0.0 14.582432123328676" Properties=species:S:1:pos:R:3:tags:I:1:masses:R:1:momenta:R:3:forces:R:3 KEmax=23.26679191048647 iter=119999 volume=397.78090899293073 ns_energy=-11.666017971763365 last_walked_iter_clone=119625 energy=-11.66601797176022 stress="0.014010908957133313 2.3497702755502223e-09 -1.834072202818079e-08 2.3497702755502223e-09 0.014006222206886722 5.614621638044737e-07 -1.834072202818079e-08 5.614621638044737e-07 0.00787632697913075" pbc="T T T"
H        1.40307756       0.81006721       5.00000000        3       1.00000000       0.00000000       0.00000000       0.00000000       0.00000000       0.00000000       0.00000000
H        4.20923268       0.81006721       5.00000000        3       1.00000000       0.00000000       0.00000000       0.00000000       0.00000000       0.00000000       0.00000000
H        0.00000000       3.24026883       5.00000000        3       1.00000000       0.00000000       0.00000000       0.00000000       0.00000000       0.00000000       0.00000000
H        2.80615512       3.24026883       5.00000000        3       1.00000000       0.00000000       0.00000000       0.00000000       0.00000000       0.00000000       0.00000000
H        0.00000000       1.62013441       7.29121606        2       1.00000000       0.00000000       0.00000000       0.00000000       0.00000000       0.00000000       0.00000000
H        2.80615512       1.62013441       7.29121606        2       1.00000000       0.00000000       0.00000000       0.00000000       0.00000000       0.00000000       0.00000000
H        1.40307756       4.05033604       7.29121606        2       1.00000000       0.00000000       0.00000000       0.00000000       0.00000000       0.00000000       0.00000000
H        4.20923268       4.05033604       7.29121606        2       1.00000000       0.00000000       0.00000000       0.00000000       0.00000000       0.00000000       0.00000000
H        0.00000000       0.00000000       9.58243212        1       1.00000000       0.00000000       0.00000000       0.00000000       0.00000000       0.00000000       0.00000000
H        2.80615512       0.00000000       9.58243212        1       1.00000000       0.00000000       0.00000000       0.00000000       0.00000000       0.00000000       0.00000000
H        1.40307756       2.43020162       9.58243212        1       1.00000000       0.00000000       0.00000000       0.00000000       0.00000000       0.00000000       0.00000000
H        4.20923268       2.43020162       9.58243212        1       1.00000000       0.00000000       0.00000000       0.00000000       0.00000000       0.00000000       0.00000000
H        4.21259081       2.44261157       2.79008950        0       1.00000000      -0.00000064       0.00000030       0.00000008      -0.00000051       0.00000461       0.00000224
H        1.39358730       2.41637682       2.76735972        0       1.00000000       0.00000041       0.00000011       0.00000033       0.00000136       0.00000334      -0.00000035
H        0.00949052       4.84657828       2.76735951        0       1.00000000       0.00000067       0.00000108      -0.00000092      -0.00000297      -0.00000516       0.00000090
H        2.80279713       0.01241008       2.79008970        0       1.00000000      -0.00000130       0.00000156      -0.00000012       0.00000177      -0.00000275      -0.00000119
H        4.21599678       0.82839583       0.55683196        0       1.00000000       0.00000019       0.00000089       0.00000081       0.00000010      -0.00000126      -0.00000078
H        2.79939060       3.25859695       0.55683164        0       1.00000000       0.00000068       0.00000132      -0.00000036      -0.00000157       0.00000161       0.00000149
18
Lattice="5.612310241546866 0.0 0.0 0.0 4.860403243099165 0.0 0.0 0.0 14.582432123328676" Properties=species:S:1:pos:R:3:tags:I:1:masses:R:1:momenta:R:3:forces:R:3 KEmax=23.26679191048647 iter=119999 volume=397.78090899293073 ns_energy=-11.666017971763342 last_walked_iter_clone=119934 energy=-11.66601797176022 stress="0.014010908957133313 2.3497702755502223e-09 -1.834072202818079e-08 2.3497702755502223e-09 0.014006222206886722 5.614621638044737e-07 -1.834072202818079e-08 5.614621638044737e-07 0.00787632697913075" pbc="T T T"
H        1.40307756       0.81006721       5.00000000        3       1.00000000       0.00000000       0.00000000       0.00000000       0.00000000       0.00000000       0.00000000
H        4.20923268       0.81006721       5.00000000        3       1.00000000       0.00000000       0.00000000       0.00000000       0.00000000       0.00000000       0.00000000
H        0.00000000       3.24026883       5.00000000        3       1.00000000       0.00000000       0.00000000       0.00000000       0.00000000       0.00000000       0.00000000
H        2.80615512       3.24026883       5.00000000        3       1.00000000       0.00000000       0.00000000       0.00000000       0.00000000       0.00000000       0.00000000
H        0.00000000       1.62013441       7.29121606        2       1.00000000       0.00000000       0.00000000       0.00000000       0.00000000       0.00000000       0.00000000
H        2.80615512       1.62013441       7.29121606        2       1.00000000       0.00000000       0.00000000       0.00000000       0.00000000       0.00000000       0.00000000
H        1.40307756       4.05033604       7.29121606        2       1.00000000       0.00000000       0.00000000       0.00000000       0.00000000       0.00000000       0.00000000
H        4.20923268       4.05033604       7.29121606        2       1.00000000       0.00000000       0.00000000       0.00000000       0.00000000       0.00000000       0.00000000
H        0.00000000       0.00000000       9.58243212        1       1.00000000       0.00000000       0.00000000       0.00000000       0.00000000       0.00000000       0.00000000
H        2.80615512       0.00000000       9.58243212        1       1.00000000       0.00000000       0.00000000       0.00000000       0.00000000       0.00000000       0.00000000
H        1.40307756       2.43020162       9.58243212        1       1.00000000       0.00000000       0.00000000       0.00000000       0.00000000       0.00000000       0.00000000
H        4.20923268       2.43020162       9.58243212        1       1.00000000       0.00000000       0.00000000       0.00000000       0.00000000       0.00000000       0.00000000
H        4.21259083       2.44261137       2.79008910        0       1.00000000      -0.00000037       0.00000002       0.00000024      -0.00000051       0.00000461       0.00000224
H        1.39358663       2.41637682       2.76735966        0       1.00000000      -0.00000005      -0.00000014       0.00000013       0.00000136       0.00000334      -0.00000035
H        0.00949054       4.84657852       2.76735928        0       1.00000000       0.00000043      -0.00000041       0.00000030      -0.00000297      -0.00000516       0.00000090
H        2.80279801       0.01241014       2.79008959        0       1.00000000      -0.00000160      -0.00000028      -0.00000005       0.00000177      -0.00000275      -0.00000119
H        4.21599775       0.82839569       0.55683125        0       1.00000000      -0.00000075       0.00000020       0.00000053       0.00000010      -0.00000126      -0.00000078
H        2.79938944       3.25859779       0.55683224        0       1.00000000       0.00000034       0.00000144      -0.00000036      -0.00000157       0.00000161       0.00000149
18
Lattice="5.612310241546866 0.0 0.0 0.0 4.860403243099165 0.0 0.0 0.0 14.582432123328676" Properties=species:S:1:pos:R:3:tags:I:1:masses:R:1:momenta:R:3:forces:R:3 KEmax=23.26679191048647 iter=119999 volume=397.78090899293073 ns_energy=-11.666017971763418 last_walked_iter_clone=119606 energy=-11.66601797176022 stress="0.014010908957133313 2.3497702755502223e-09 -1.834072202818079e-08 2.3497702755502223e-09 0.014006222206886722 5.614621638044737e-07 -1.834072202818079e-08 5.614621638044737e-07 0.00787632697913075" pbc="T T T"
H        1.40307756       0.81006721       5.00000000        3       1.00000000       0.00000000       0.00000000       0.00000000       0.00000000       0.00000000       0.00000000
H        4.20923268       0.81006721       5.00000000        3       1.00000000       0.00000000       0.00000000       0.00000000       0.00000000       0.00000000       0.00000000
H        0.00000000       3.24026883       5.00000000        3       1.00000000       0.00000000       0.00000000       0.00000000       0.00000000       0.00000000       0.00000000
H        2.80615512       3.24026883       5.00000000        3       1.00000000       0.00000000       0.00000000       0.00000000       0.00000000       0.00000000       0.00000000
H        0.00000000       1.62013441       7.29121606        2       1.00000000       0.00000000       0.00000000       0.00000000       0.00000000       0.00000000       0.00000000
H        2.80615512       1.62013441       7.29121606        2       1.00000000       0.00000000       0.00000000       0.00000000       0.00000000       0.00000000       0.00000000
H        1.40307756       4.05033604       7.29121606        2       1.00000000       0.00000000       0.00000000       0.00000000       0.00000000       0.00000000       0.00000000
H        4.20923268       4.05033604       7.29121606        2       1.00000000       0.00000000       0.00000000       0.00000000       0.00000000       0.00000000       0.00000000
H        0.00000000       0.00000000       9.58243212        1       1.00000000       0.00000000       0.00000000       0.00000000       0.00000000       0.00000000       0.00000000
H        2.80615512       0.00000000       9.58243212        1       1.00000000       0.00000000       0.00000000       0.00000000       0.00000000       0.00000000       0.00000000
H        1.40307756       2.43020162       9.58243212        1       1.00000000       0.00000000       0.00000000       0.00000000       0.00000000       0.00000000       0.00000000
H        4.20923268       2.43020162       9.58243212        1       1.00000000       0.00000000       0.00000000       0.00000000       0.00000000       0.00000000       0.00000000
H        4.21259071       2.44261128       2.79008908        0       1.00000000      -0.00000053      -0.00000075      -0.00000034      -0.00000051       0.00000461       0.00000224
H        1.39358711       2.41637625       2.76735963        0       1.00000000       0.00000069      -0.00000019      -0.00000075       0.00000136       0.00000334      -0.00000035
H        0.00949081       4.84657778       2.76735922        0       1.00000000       0.00000092      -0.00000017       0.00000031      -0.00000297      -0.00000516       0.00000090
H        2.80279792       0.01240986       2.79008978        0       1.00000000       0.00000001      -0.00000035      -0.00000041       0.00000177      -0.00000275      -0.00000119
H        4.21599820       0.82839493       0.55683065        0       1.00000000      -0.00000085      -0.00000064       0.00000083       0.00000010      -0.00000126      -0.00000078
H        2.79938975       3.25859696       0.55683231        0       1.00000000       0.00000163      -0.00000033      -0.00000008      -0.00000157       0.00000161       0.00000149
18
Lattice="5.612310241546866 0.0 0.0 0.0 4.860403243099165 0.0 0.0 0.0 14.582432123328676" Properties=species:S:1:pos:R:3:tags:I:1:masses:R:1:momenta:R:3:forces:R:3 KEmax=23.26679191048647 iter=119999 volume=397.78090899293073 ns_energy=-11.66601797176384 last_walked_iter_clone=119269 energy=-11.66601797176022 stress="0.014010908957133313 2.3497702755502223e-09 -1.834072202818079e-08 2.3497702755502223e-09 0.014006222206886722 5.614621638044737e-07 -1.834072202818079e-08 5.614621638044737e-07 0.00787632697913075" pbc="T T T"
H        1.40307756       0.81006721       5.00000000        3       1.00000000       0.00000000       0.00000000       0.00000000       0.00000000       0.00000000       0.00000000
H        4.20923268       0.81006721       5.00000000        3       1.00000000       0.00000000       0.00000000       0.00000000       0.00000000       0.00000000       0.00000000
H        0.00000000       3.24026883       5.00000000        3       1.00000000       0.00000000       0.00000000       0.00000000       0.00000000       0.00000000       0.00000000
H        2.80615512       3.24026883       5.00000000        3       1.00000000       0.00000000       0.00000000       0.00000000       0.00000000       0.00000000       0.00000000
H        0.00000000       1.62013441       7.29121606        2       1.00000000       0.00000000       0.00000000       0.00000000       0.00000000       0.00000000       0.00000000
H        2.80615512       1.62013441       7.29121606        2       1.00000000       0.00000000       0.00000000       0.00000000       0.00000000       0.00000000       0.00000000
H        1.40307756       4.05033604       7.29121606        2       1.00000000       0.00000000       0.00000000       0.00000000       0.00000000       0.00000000       0.00000000
H        4.20923268       4.05033604       7.29121606        2       1.00000000       0.00000000       0.00000000       0.00000000       0.00000000       0.00000000       0.00000000
H        0.00000000       0.00000000       9.58243212        1       1.00000000       0.00000000       0.00000000       0.00000000       0.00000000       0.00000000       0.00000000
H        2.80615512       0.00000000       9.58243212        1       1.00000000       0.00000000       0.00000000       0.00000000       0.00000000       0.00000000       0.00000000
H        1.40307756       2.43020162       9.58243212        1       1.00000000       0.00000000       0.00000000       0.00000000       0.00000000       0.00000000       0.00000000
H        4.20923268       2.43020162       9.58243212        1       1.00000000       0.00000000       0.00000000       0.00000000       0.00000000       0.00000000       0.00000000
H        4.21259085       2.44261166       2.79008939        0       1.00000000       0.00000038      -0.00000107       0.00000074      -0.00000051       0.00000461       0.00000224
H        1.39358713       2.41637665       2.76735954        0       1.00000000       0.00000119       0.00000087       0.00000011       0.00000136       0.00000334      -0.00000035
H        0.00949057       4.84657789       2.76735922        0       1.00000000       0.00000012       0.00000012      -0.00000042      -0.00000297      -0.00000516       0.00000090