18
Lattice="5.612310241546866 0.0 0.0 0.0 4.860403243099165 0.0 0.0 0.0 14.582432123328676" Properties=species:S:1:pos:R:3:tags:I:1:masses:R:1:momenta:R:3:forces:R:3 KEmax=23.26679191048647 iter=86444 volume=397.78090899293073 ns_energy=-11.636651373921435 last_walked_iter_clone=86416 energy=-11.636651373971276 stress="0.022595603015176796 -2.619210614116619e-08 7.739703205152194e-10 -2.619210614116619e-08 0.02271002105590251 -3.902248881568866e-08 7.739703205152194e-10 -3.902248881568866e-08 0.012378193656182822" pbc="T T F"
H        1.40307756       0.81006721       5.00000000        3       1.00000000       0.00000000       0.00000000       0.00000000       0.00000000       0.00000000       0.00000000
H        4.20923268       0.81006721       5.00000000        3       1.00000000       0.00000000       0.00000000       0.00000000       0.00000000       0.00000000       0.00000000
H        0.00000000       3.24026883       5.00000000        3       1.00000000       0.00000000       0.00000000       0.00000000       0.00000000       0.00000000       0.00000000
H        2.80615512       3.24026883       5.00000000        3       1.00000000       0.00000000       0.00000000       0.00000000       0.00000000       0.00000000       0.00000000
H        0.00000000       1.62013441       7.29121606        2       1.00000000       0.00000000       0.00000000       0.00000000       0.00000000       0.00000000       0.00000000
H        2.80615512       1.62013441       7.29121606        2       1.00000000       0.00000000       0.00000000       0.00000000       0.00000000       0.00000000       0.00000000
H        1.40307756       4.05033604       7.29121606        2       1.00000000       0.00000000       0.00000000       0.00000000       0.00000000       0.00000000       0.00000000
H        4.20923268       4.05033604       7.29121606        2       1.00000000       0.00000000       0.00000000       0.00000000       0.00000000       0.00000000       0.00000000
H        0.00000000       0.00000000       9.58243212        1       1.00000000       0.00000000       0.00000000       0.00000000       0.00000000       0.00000000       0.00000000
H        2.80615512       0.00000000       9.58243212        1       1.00000000       0.00000000       0.00000000       0.00000000       0.00000000       0.00000000       0.00000000
H        1.40307756       2.43020162       9.58243212        1       1.00000000       0.00000000       0.00000000       0.00000000       0.00000000       0.00000000       0.00000000
H        4.20923268       2.43020162       9.58243212        1       1.00000000       0.00000000       0.00000000       0.00000000       0.00000000       0.00000000       0.00000000
H        4.20923378       2.43020298       2.77172781        0       1.00000000       0.00000036       0.00000579       0.00000076       0.00000598      -0.00001215      -0.00000209
H        0.00000095       0.00000158       2.77172546        0       1.00000000       0.00000496      -0.00000186       0.00000093      -0.00000268       0.00000086       0.00000290
H        4.21916064       4.05018864      11.81113044        0       1.00000000      -0.00000081       0.00000142      -0.00000105       0.00000074       0.00000655      -0.00000148
H        2.80615484       4.86040103       2.77172771        0       1.00000000       0.00000040      -0.00000360       0.00000078      -0.00000136       0.00001313      -0.00000580
H        2.79622440       1.61998274      11.81113205        0       1.00000000      -0.00000168       0.00000215       0.00000051      -0.00000092      -0.00000380      -0.00000181
H        1.40307838       2.43019991       2.77172542        0       1.00000000      -0.00000194       0.00000312      -0.00000212      -0.00000204      -0.00000297       0.00000139
18
Lattice="5.612310241546866 0.0 0.0 0.0 4.860403243099165 0.0 0.0 0.0 14.582432123328676" Properties=species:S:1:pos:R:3:tags:I:1:masses:R:1:momenta:R:3:forces:R:3 KEmax=23.26679191048647 iter=86444 volume=397.78090899293073 ns_energy=-11.636651373921904 last_walked_iter_clone=86295 energy=-11.636651373971276 stress="0.022595603015176796 -2.619210614116619e-08 7.739703205152194e-10 -2.619210614116619e-08 0.02271002105590251 -3.902248881568866e-08 7.739703205152194e-10 -3.902248881568866e-08 0.012378193656182822" pbc="T T F"
H        1.40307756       0.81006721       5.00000000        3       1.00000000       0.00000000       0.00000000       0.00000000       0.00000000       0.00000000       0.00000000
H        4.20923268       0.81006721       5.00000000        3       1.00000000       0.00000000       0.00000000       0.00000000       0.00000000       0.00000000       0.00000000
H        0.00000000       3.24026883       5.00000000        3       1.00000000       0.00000000       0.00000000       0.00000000       0.00000000       0.00000000       0.00000000
H        2.80615512       3.24026883       5.00000000        3       1.00000000       0.00000000       0.00000000       0.00000000       0.00000000       0.00000000       0.00000000
H        0.00000000       1.62013441       7.29121606        2       1.00000000       0.00000000       0.00000000       0.00000000       0.00000000       0.00000000       0.00000000
H        2.80615512       1.62013441       7.29121606        2       1.00000000       0.00000000       0.00000000       0.00000000       0.00000000       0.00000000       0.00000000
H        1.40307756       4.05033604       7.29121606        2       1.00000000       0.00000000       0.00000000       0.00000000       0.00000000       0.00000000       0.00000000
H        4.20923268       4.05033604       7.29121606        2       1.00000000       0.00000000       0.00000000       0.00000000       0.00000000       0.00000000       0.00000000
H        0.00000000       0.00000000       9.58243212        1       1.00000000       0.00000000       0.00000000       0.00000000       0.00000000       0.00000000       0.00000000
H        2.80615512       0.00000000       9.58243212        1       1.00000000       0.00000000       0.00000000       0.00000000       0.00000000       0.00000000       0.00000000
H        1.40307756       2.43020162       9.58243212        1       1.00000000       0.00000000       0.00000000       0.00000000       0.00000000       0.00000000       0.00000000
H        4.20923268       2.43020162       9.58243212        1       1.00000000       0.00000000       0.00000000       0.00000000       0.00000000       0.00000000       0.00000000
H        4.20923195       2.43020178       2.77172599        0       1.00000000       0.00000389       0.00000039      -0.00000093       0.00000598      -0.00001215      -0.00000209
H        5.61230995       4.86040619       2.77172929        0       1.00000000       0.00000273      -0.00000398       0.00000414      -0.00000268       0.00000086       0.00000290
H        4.21916183       4.05019107      11.81113028        0       1.00000000      -0.00000023      -0.00000113       0.00000379       0.00000074       0.00000655      -0.00000148
H        2.80615339       0.00000025       2.77172529        0       1.00000000       0.00000018       0.00000424      -0.00000057      -0.00000136       0.00001313      -0.00000580
H        2.79622170       1.61998660      11.81113142        0       1.00000000      -0.00000446      -0.00000191      -0.00000026      -0.00000092      -0.00000380      -0.00000181
H        1.40307730       2.43020185       2.77172469        0       1.00000000      -0.00000113      -0.00000443       0.00000030      -0.00000204      -0.00000297       0.00000139
18
Lattice="5.612310241546866 0.0 0.0 0.0 4.860403243099165 0.0 0.0 0.0 14.582432123328676" Properties=species:S:1:pos:R:3:tags:I:1:masses:R:1:momenta:R:3:forces:R:3 KEmax=23.26679191048647 iter=86444 volume=397.78090899293073 ns_energy=-11.63665137392546 last_walked_iter_clone=86435 energy=-11.636651373971276 stress="0.022595603015176796 -2.619210614116619e-08 7.739703205152194e-10 -2.619210614116619e-08 0.02271002105590251 -3.902248881568866e-08 7.739703205152194e-10 -3.902248881568866e-08 0.012378193656182822" pbc="T T F"
H        1.40307756       0.81006721       5.00000000        3       1.00000000       0.00000000       0.00000000       0.00000000       0.00000000       0.00000000       0.00000000
H        4.20923268       0.81006721       5.00000000        3       1.00000000       0.00000000       0.00000000       0.00000000       0.00000000       0.00000000       0.00000000
H        0.00000000       3.24026883       5.00000000        3       1.00000000       0.00000000       0.00000000       0.00000000       0.00000000       0.00000000       0.00000000
H        2.80615512       3.24026883       5.00000000        3       1.00000000       0.00000000       0.00000000       0.00000000       0.00000000       0.00000000       0.00000000
H        0.00000000       1.62013441       7.29121606        2       1.00000000       0.00000000       0.00000000       0.00000000       0.00000000       0.00000000       0.00000000
H        2.80615512       1.62013441       7.29121606        2       1.00000000       0.00000000       0.00000000       0.00000000       0.00000000       0.00000000       0.00000000
H        1.40307756       4.05033604       7.29121606        2       1.00000000       0.00000000       0.00000000       0.00000000       0.00000000       0.00000000       0.00000000
H        4.20923268       4.05033604       7.29121606        2       1.00000000       0.00000000       0.00000000       0.00000000       0.00000000       0.00000000       0.00000000
H        0.00000000       0.00000000       9.58243212        1       1.00000000       0.00000000       0.00000000       0.00000000       0.00000000       0.00000000       0.00000000
H        2.80615512       0.00000000       9.58243212        1       1.00000000       0.00000000       0.00000000       0.00000000       0.00000000       0.00000000       0.00000000
H        1.40307756       2.43020162       9.58243212        1       1.00000000       0.00000000       0.00000000       0.00000000       0.00000000       0.00000000       0.00000000
H        4.20923268       2.43020162       9.58243212        1       1.00000000       0.00000000       0.00000000       0.00000000       0.00000000       0.00000000       0.00000000
H        4.20923202       2.43020312       2.77172950        0       1.00000000       0.00000418       0.00000026       0.00000361       0.00000598      -0.00001215      -0.00000209
H        5.61230801       4.86040292       2.77172623        0       1.00000000       0.00000107       0.00000232       0.00000306      -0.00000268       0.00000086       0.00000290
H        4.21916355       4.05018835      11.81113212        0       1.00000000      -0.00000232       0.00000292       0.00000615       0.00000074       0.00000655      -0.00000148
H        2.80615321       4.86040526       2.77172809        0       1.00000000      -0.00000373       0.00000242       0.00000095      -0.00000136       0.00001313      -0.00000580
H        2.79622434       1.61998563      11.81112836        0       1.00000000      -0.00000066       0.00000009       0.00000145      -0.00000092      -0.00000380      -0.00000181
H        1.40307793       2.43020084       2.77172552        0       1.00000000       0.00000231      -0.00000315      -0.00000031      -0.00000204      -0.00000297       0.00000139
18
Lattice="5.612310241546866 0.0 0.0 0.0 4.860403243099165 0.0 0.0 0.0 14.582432123328676" Properties=species:S:1:pos:R:3:tags:I:1:masses:R:1:momenta:R:3:forces:R:3 KEmax=23.26679191048647 iter=86444 volume=397.78090899293073 ns_energy=-11.63665137392127 last_walked_iter_clone=86401 energy=-11.636651373971276 stress="0.022595603015176796 -2.619210614116619e-08 7.739703205152194e-10 -2.619210614116619e-08 0.02271002105590251 -3.902248881568866e-08 7.739703205152194e-10 -3.902248881568866e-08 0.012378193656182822" pbc="T T F"
H        1.40307756       0.81006721       5.00000000        3       1.00000000       0.00000000       0.00000000       0.00000000       0.00000000       0.00000000       0.00000000
H        4.20923268       0.81006721       5.00000000        3       1.00000000       0.00000000       0.00000000       0.00000000       0.00000000       0.00000000       0.00000000
H        0.00000000       3.24026883       5.00000000        3       1.00000000       0.00000000       0.00000000       0.00000000       0.00000000       0.00000000       0.00000000
H        2.80615512       3.24026883       5.00000000        3       1.00000000       0.00000000       0.00000000       0.00000000       0.00000000       0.00000000       0.00000000
H        0.00000000       1.62013441       7.29121606        2       1.00000000       0.00000000       0.00000000       0.00000000       0.00000000       0.00000000       0.00000000
H        2.80615512       1.62013441       7.29121606        2       1.00000000       0.00000000       0.00000000       0.00000000       0.00000000       0.00000000       0.00000000
H        1.40307756       4.05033604       7.29121606        2       1.00000000       0.00000000       0.00000000       0.00000000       0.00000000       0.00000000       0.00000000
H        4.20923268       4.05033604       7.29121606        2       1.00000000       0.00000000       0.00000000       0.00000000       0.00000000       0.00000000       0.00000000
H        0.00000000       0.00000000       9.58243212        1       1.00000000       0.00000000       0.00000000       0.00000000       0.00000000       0.00000000       0.00000000
H        2.80615512       0.00000000       9.58243212        1       1.00000000       0.00000000       0.00000000       0.00000000       0.00000000       0.00000000       0.00000000
H        1.40307756       2.43020162       9.58243212        1       1.00000000       0.00000000       0.00000000       0.00000000       0.00000000       0.00000000       0.00000000
H        4.20923268       2.43020162       9.58243212        1       1.00000000       0.00000000       0.00000000       0.00000000       0.00000000       0.00000000       0.00000000
H        4.20923157       2.43020200       2.77172884        0       1.00000000      -0.00000387       0.00000439       0.00000251       0.00000598      -0.00001215      -0.00000209
H       -0.00000122       0.00000023       2.77172750        0       1.00000000      -0.00000494      -0.00000061       0.00000118      -0.00000268       0.00000086       0.00000290
H        4.21916663       4.05018658      11.81113047        0       1.00000000       0.00000236       0.00000485      -0.00000206       0.00000074       0.00000655      -0.00000148
H        2.80615412      -0.00000089       2.77172795        0       1.00000000       0.00000411      -0.00000226       0.00000029      -0.00000136       0.00001313      -0.00000580
H        2.79622162       1.61998511      11.81113143        0       1.00000000      -0.00000291      -0.00000248       0.00000307      -0.00000092      -0.00000380      -0.00000181
H        1.40307696       2.43020085       2.77172483        0       1.00000000       0.00000197      -0.00000337       0.00000297      -0.00000204      -0.00000297       0.00000139
18
Lattice="5.612310241546866 0.0 0.0 0.0 4.860403243099165 0.0 0.0 0.0 14.582432123328676" Properties=species:S:1:pos:R:3:tags:I:1:masses:R:1:momenta:R:3:forces:R:3 KEmax=23.26679191048647 iter=86444 volume=397.78090899293073 ns_energy=-11.63665137392243 last_walked_iter_clone=86375 energy=-11.636651373971276 stress="0.022595603015176796 -2.619210614116619e-08 7.739703205152194e-10 -2.619210614116619e-08 0.02271002105590251 -3.902248881568866e-08 7.739703205152194e-10 -3.902248881568866e-08 0.012378193656182822" pbc="T T F"
H        1.40307756       0.81006721       5.00000000        3       1.00000000       0.00000000       0.00000000       0.00000000       0.00000000       0.00000000       0.00000000
H        4.20923268       0.81006721       5.00000000        3       1.00000000       0.00000000       0.00000000       0.00000000       0.00000000       0.00000000       0.00000000
H        0.00000000       3.24026883       5.00000000        3       1.00000000       0.00000000       0.00000000       0.00000000       0.00000000       0.00000000       0.00000000
H        2.80615512       3.24026883       5.00000000        3       1.00000000       0.00000000       0.00000000       0.00000000       0.00000000       0.00000000       0.00000000
H        0.00000000       1.62013441       7.29121606        2       1.00000000       0.00000000       0.00000000       0.00000000       0.00000000       0.00000000       0.00000000
H        2.80615512       1.62013441       7.29121606        2       1.00000000       0.00000000       0.00000000       0.00000000       0.00000000       0.00000000       0.00000000
H        1.40307756       4.05033604       7.29121606        2       1.00000000       0.00000000       0.00000000       0.00000000       0.00000000       0.00000000       0.00000000
H        4.20923268       4.05033604       7.29121606        2       1.00000000       0.00000000       0.00000000       0.00000000       0.00000000       0.00000000       0.00000000
H        0.00000000       0.00000000       9.58243212        1       1.00000000       0.00000000       0.00000000       0.00000000       0.00000000       0.00000000       0.00000000
H        2.80615512       0.00000000       9.58243212        1       1.00000000       0.00000000       0.00000000       0.00000000       0.00000000       0.00000000       0.00000000
H        1.40307756       2.43020162       9.58243212        1       1.00000000       0.00000000       0.00000000       0.00000000       0.00000000       0.00000000       0.00000000
H        4.20923268       2.43020162       9.58243212        1       1.00000000       0.00000000       0.00000000       0.00000000       0.00000000       0.00000000       0.00000000
H        4.20923076       2.43019902       2.77172594        0       1.00000000      -0.00000089      -0.00000008       0.00000261       0.00000598      -0.00001215      -0.00000209
H        5.61231027      -0.00000202       2.77172624        0       1.00000000       0.00000203      -0.00000646      -0.00000202      -0.00000268       0.00000086       0.00000290
H        4.21916776       4.05019030      11.81113084        0       1.00000000       0.00000089      -0.00000325      -0.00000045       0.00000074       0.00000655      -0.00000148
H        2.80615540      -0.00000249       2.77172421        0       1.00000000       0.00000050      -0.00000117      -0.00000124      -0.00000136       0.00001313      -0.00000580
H        2.79622422       1.61998880      11.81112987        0       1.00000000       0.00000082      -0.00000071      -0.00000288      -0.00000092      -0.00000380      -0.00000181
H        1.40307708       2.43019796       2.77173054        0       1.00000000       0.00000003       0.00000186      -0.00000597      -0.00000204      -0.00000297       0.00000139
18
Lattice="5.612310241546866 0.0 0.0 0.0 4.860403243099165 0.0 0.0 0.0 14.582432123328676" Properties=species:S:1:pos:R:3:tags:I:1:masses:R:1:momenta:R:3:forces:R:3 KEmax=23.26679191048647 iter=86444 volume=397.78090899293073 ns_energy=-11.636651373920484 last_walked_iter_clone=86409 energy=-11.636651373971276 stress="0.022595603015176796 -2.619210614116619e-08 7.739703205152194e-10 -2.619210614116619e-08 0.02271002105590251 -3.902248881568866e-08 7.739703205152194e-10 -3.902248881568866e-08 0.012378193656182822" pbc="T T F"
H        1.40307756       0.81006721       5.00000000        3       1.00000000       0.00000000       0.00000000       0.00000000       0.00000000       0.00000000       0.00000000
H        4.20923268       0.81006721       5.00000000        3       1.00000000       0.00000000       0.00000000       0.00000000       0.00000000       0.00000000       0.00000000
H        0.00000000       3.24026883       5.00000000        3       1.00000000       0.00000000       0.00000000       0.00000000       0.00000000       0.00000000       0.00000000
H        2.80615512       3.24026883       5.00000000        3       1.00000000       0.00000000       0.00000000       0.00000000       0.00000000       0.00000000       0.00000000
H        0.00000000       1.62013441       7.29121606        2       1.00000000       0.00000000       0.00000000       0.00000000       0.00000000       0.00000000       0.00000000
H        2.80615512       1.62013441       7.29121606        2       1.00000000       0.00000000       0.00000000       0.00000000       0.00000000       0.00000000       0.00000000
H        1.40307756       4.05033604       7.29121606        2       1.00000000       0.00000000       0.00000000       0.00000000       0.00000000       0.00000000       0.00000000
H        4.20923268       4.05033604       7.29121606        2       1.00000000       0.00000000       0.00000000       0.00000000       0.00000000       0.00000000       0.00000000
H        0.00000000       0.00000000       9.58243212        1       1.00000000       0.00000000       0.00000000       0.00000000       0.00000000       0.00000000       0.00000000
H        2.80615512       0.00000000       9.58243212        1       1.00000000       0.00000000       0.00000000       0.00000000       0.00000000       0.00000000       0.00000000
H        1.40307756       2.43020162       9.58243212        1       1.00000000       0.00000000       0.00000000       0.00000000       0.00000000       0.00000000       0.00000000
H        4.20923268       2.43020162       9.58243212        1       1.00000000       0.00000000       0.00000000       0.00000000       0.00000000       0.00000000       0.00000000
H        4.20923274       2.43020187       2.77172299        0       1.00000000      -0.00000365      -0.00000241       0.00000302       0.00000598      -0.00001215      -0.00000209
H        0.00000114       4.86040343       2.77172823        0       1.00000000      -0.00000176       0.00000170      -0.00000143      -0.00000268       0.00000086       0.00000290
H        4.21916416       4.05019348      11.81112950        0       1.00000000       0.00000044      -0.00000142      -0.00000278       0.00000074       0.00000655      -0.00000148
H        2.80615720       0.00000291       2.77172660        0       1.00000000      -0.00000025       0.00000186      -0.00000168      -0.00000136       0.00001313      -0.00000580
H        2.79622036       1.61999250      11.81113097        0       1.00000000      -0.00000278       0.00000082       0.00000079      -0.00000092      -0.00000380      -0.00000181
H        1.40307812       2.43020476       2.77172581        0       1.00000000      -0.00000288      -0.00000460      -0.00000040      -0.00000204      -0.00000297       0.00000139
18
Lattice="5.612310241546866 0.0 0.0 0.0 4.860403243099165 0.0 0.0 0.0 14.582432123328676" Properties=species:S:1:pos:R:3:tags:I:1:masses:R:1:momenta:R:3:forces:R:3 KEmax=23.26679191048647 iter=86444 volume=397.78090899293073 ns_energy=-11.636651373921422 last_walked_iter_clone=86228 energy=-11.636651373971276 stress="0.022595603015176796 -2.619210614116619e-08 7.739703205152194e-10 -2.619210614116619e-08 0.02271002105590251 -3.902248881568866e-08 7.739703205152194e-10 -3.902248881568866e-08 0.012378193656182822" pbc="T T F"
H        1.40307756       0.81006721       5.00000000        3       1.00000000       0.00000000       0.00000000       0.00000000       0.00000000       0.00000000       0.00000000
H        4.20923268       0.81006721       5.00000000        3       1.00000000       0.00000000       0.00000000       0.00000000       0.00000000       0.00000000       0.00000000
H        0.00000000       3.24026883       5.00000000        3       1.00000000       0.00000000       0.00000000       0.00000000       0.00000000       0.00000000       0.00000000
H        2.80615512       3.24026883       5.00000000        3       1.00000000       0.00000000       0.00000000       0.00000000       0.00000000       0.00000000       0.00000000
H        0.00000000       1.62013441       7.29121606        2       1.00000000       0.00000000       0.00000000       0.00000000       0.00000000       0.00000000       0.00000000
H        2.80615512       1.62013441       7.29121606        2       1.00000000       0.00000000       0.00000000       0.00000000       0.00000000       0.00000000       0.00000000
H        1.40307756       4.05033604       7.29121606        2       1.00000000       0.00000000       0.00000000       0.00000000       0.00000000       0.00000000       0.00000000
H        4.20923268       4.05033604       7.29121606        2       1.00000000       0.00000000       0.00000000       0.00000000       0.00000000       0.00000000       0.00000000
H        0.00000000       0.00000000       9.58243212        1       1.00000000       0.00000000       0.00000000       0.00000000       0.00000000       0.00000000       0.00000000
H        2.80615512       0.00000000       9.58243212        1       1.00000000       0.00000000       0.00000000       0.00000000       0.00000000       0.00000000       0.00000000
H        1.40307756       2.43020162       9.58243212        1       1.00000000       0.00000000       0.00000000       0.00000000       0.00000000       0.00000000       0.00000000
H        4.20923268       2.43020162       9.58243212        1       1.00000000       0.00000000       0.00000000       0.00000000       0.00000000       0.00000000       0.00000000
H        4.20923383       2.43020116       2.77172750        0       1.00000000      -0.00000492      -0.00000174      -0.00000239       0.00000598      -0.00001215      -0.00000209
H       -0.00000046       0.00000026       2.77172798        0       1.00000000      -0.00000211      -0.00000039       0.00000473      -0.00000268       0.00000086       0.00000290
H        4.21916166       4.05019054      11.81113200        0       1.00000000      -0.00000162      -0.00000070      -0.00000329       0.00000074       0.00000655      -0.00000148
H        2.80615353       4.86040241       2.77172899        0       1.00000000       0.00000161      -0.00000272       0.00000521      -0.00000136       0.00001313      -0.00000580
H        2.79621947       1.61998936      11.81112982        0       1.00000000      -0.00000194      -0.00000387       0.00000376      -0.00000092      -0.00000380      -0.00000181
H        1.40307941       2.43020286       2.77172601        0       1.00000000       0.00000168       0.00000343       0.00000110      -0.00000204      -0.00000297       0.00000139
18
Lattice="5.612310241546866 0.0 0.0 0.0 4.860403243099165 0.0 0.0 0.0 14.582432123328676" Properties=species:S:1:pos:R:3:tags:I:1:masses:R:1:momenta:R:3:forces:R:3 KEmax=23.26679191048647 iter=86444 volume=397.78090899293073 ns_energy=-11.636651373924309 last_walked_iter_clone=86289 energy=-11.636651373971276 stress="0.022595603015176796 -2.619210614116619e-08 7.739703205152194e-10 -2.619210614116619e-08 0.02271002105590251 -3.902248881568866e-08 7.739703205152194e-10 -3.902248881568866e-08 0.012378193656182822" pbc="T T F"
H        1.40307756       0.81006721       5.00000000        3       1.00000000       0.00000000       0.00000000       0.00000000       0.00000000       0.00000000       0.00000000
H        4.20923268       0.81006721       5.00000000        3       1.00000000       0.00000000       0.00000000       0.00000000       0.00000000       0.00000000       0.00000000
H        0.00000000       3.24026883       5.00000000        3       1.00000000       0.00000000       0.00000000       0.00000000       0.00000000       0.00000000       0.00000000
H        2.80615512       3.24026883       5.00000000        3       1.00000000       0.00000000       0.00000000       0.00000000       0.00000000       0.00000000       0.00000000
H        0.00000000       1.62013441       7.29121606        2       1.00000000       0.00000000       0.00000000       0.00000000       0.00000000       0.00000000       0.00000000
H        2.80615512       1.62013441       7.29121606        2       1.00000000       0.00000000       0.00000000       0.00000000       0.00000000       0.00000000       0.00000000
H        1.40307756       4.05033604       7.29121606        2       1.00000000       0.00000000       0.00000000       0.00000000       0.00000000       0.00000000       0.00000000
H        4.20923268       4.05033604       7.29121606        2       1.00000000       0.00000000       0.00000000       0.00000000       0.00000000       0.00000000       0.00000000
H        0.00000000       0.00000000       9.58243212        1       1.00000000       0.00000000       0.00000000       0.00000000       0.00000000       0.00000000       0.00000000
H        2.80615512       0.00000000       9.58243212        1       1.00000000       0.00000000       0.00000000       0.00000000       0.00000000       0.00000000       0.00000000
H        1.40307756       2.43020162       9.58243212        1       1.00000000       0.00000000       0.00000000       0.00000000       0.00000000       0.00000000       0.00000000
H        4.20923268       2.43020162       9.58243212        1       1.00000000       0.00000000       0.00000000       0.00000000       0.00000000       0.00000000       0.00000000
H        4.20923196       2.43019870       2.77172931        0       1.00000000      -0.00000092      -0.00000061      -0.00000026       0.00000598      -0.00001215      -0.00000209
H       -0.00000226      -0.00000414       2.77172908        0       1.00000000      -0.00000180       0.00000587      -0.00000334      -0.00000268       0.00000086       0.00000290
H        4.21916301       4.05018774      11.81112986        0       1.00000000      -0.00000230      -0.00000047       0.00000046       0.00000074       0.00000655      -0.00000148