18
Lattice="5.612310241546866 0.0 0.0 0.0 4.860403243099165 0.0 0.0 0.0 14.582432123328676" Properties=species:S:1:pos:R:3:tags:I:1:masses:R:1:momenta:R:3:forces:R:3 KEmax=23.26679191048647 iter=116265 volume=397.78090899293073 ns_energy=-11.636651374029416 last_walked_iter_clone=115935 energy=-11.636651374032539 stress="0.02259560453686614 -2.025374307714792e-09 6.926066054015399e-09 -2.025374307714792e-09 0.02271002668989612 -6.230764648326466e-09 6.926066054015399e-09 -6.230764648326466e-09 0.012378212824412656" pbc="T T F"
H        1.40307756       0.81006721       5.00000000        3       1.00000000       0.00000000       0.00000000       0.00000000       0.00000000       0.00000000       0.00000000
H        4.20923268       0.81006721       5.00000000        3       1.00000000       0.00000000       0.00000000       0.00000000       0.00000000       0.00000000       0.00000000
H        0.00000000       3.24026883       5.00000000        3       1.00000000       0.00000000       0.00000000       0.00000000       0.00000000       0.00000000       0.00000000
H        2.80615512       3.24026883       5.00000000        3       1.00000000       0.00000000       0.00000000       0.00000000       0.00000000       0.00000000       0.00000000
H        0.00000000       1.62013441       7.29121606        2       1.00000000       0.00000000       0.00000000       0.00000000       0.00000000       0.00000000       0.00000000
H        2.80615512       1.62013441       7.29121606        2       1.00000000       0.00000000       0.00000000       0.00000000       0.00000000       0.00000000       0.00000000
H        1.40307756       4.05033604       7.29121606        2       1.00000000       0.00000000       0.00000000       0.00000000       0.00000000       0.00000000       0.00000000
H        4.20923268       4.05033604       7.29121606        2       1.00000000       0.00000000       0.00000000       0.00000000       0.00000000       0.00000000       0.00000000
H        0.00000000       0.00000000       9.58243212        1       1.00000000       0.00000000       0.00000000       0.00000000       0.00000000       0.00000000       0.00000000
H        2.80615512       0.00000000       9.58243212        1       1.00000000       0.00000000       0.00000000       0.00000000       0.00000000       0.00000000       0.00000000
H        1.40307756       2.43020162       9.58243212        1       1.00000000       0.00000000       0.00000000       0.00000000       0.00000000       0.00000000       0.00000000
H        4.20923268       2.43020162       9.58243212        1       1.00000000       0.00000000       0.00000000       0.00000000       0.00000000       0.00000000       0.00000000
H        4.20923269       2.43020119       2.77172729        0       1.00000000      -0.00000038       0.00000019      -0.00000057       0.00000206       0.00000158      -0.00000042
H        5.61231052       0.00000007       2.77172680        0       1.00000000      -0.00000098      -0.00000094      -0.00000055      -0.00000108      -0.00000002      -0.00000063
H        4.21916484       4.05018836      11.81113091        0       1.00000000      -0.00000017      -0.00000090      -0.00000130       0.00000063       0.00000020      -0.00000062
H        2.80615520       4.86040263       2.77172716        0       1.00000000      -0.00000057       0.00000045      -0.00000035       0.00000047       0.00000053      -0.00000036
H        2.79622351       1.61998633      11.81113034        0       1.00000000      -0.00000070      -0.00000041       0.00000072      -0.00000130       0.00000045      -0.00000064
H        1.40307791       2.43020103       2.77172677        0       1.00000000       0.00000030       0.00000059       0.00000034      -0.00000136      -0.00000171       0.00000198
18
Lattice="5.612310241546866 0.0 0.0 0.0 4.860403243099165 0.0 0.0 0.0 14.582432123328676" Properties=species:S:1:pos:R:3:tags:I:1:masses:R:1:momenta:R:3:forces:R:3 KEmax=23.26679191048647 iter=116265 volume=397.78090899293073 ns_energy=-11.63665137402941 last_walked_iter_clone=115430 energy=-11.636651374032539 stress="0.02259560453686614 -2.025374307714792e-09 6.926066054015399e-09 -2.025374307714792e-09 0.02271002668989612 -6.230764648326466e-09 6.926066054015399e-09 -6.230764648326466e-09 0.012378212824412656" pbc="T T F"
H        1.40307756       0.81006721       5.00000000        3       1.00000000       0.00000000       0.00000000       0.00000000       0.00000000       0.00000000       0.00000000
H        4.20923268       0.81006721       5.00000000        3       1.00000000       0.00000000       0.00000000       0.00000000       0.00000000       0.00000000       0.00000000
H        0.00000000       3.24026883       5.00000000        3       1.00000000       0.00000000       0.00000000       0.00000000       0.00000000       0.00000000       0.00000000
H        2.80615512       3.24026883       5.00000000        3       1.00000000       0.00000000       0.00000000       0.00000000       0.00000000       0.00000000       0.00000000
H        0.00000000       1.62013441       7.29121606        2       1.00000000       0.00000000       0.00000000       0.00000000       0.00000000       0.00000000       0.00000000
H        2.80615512       1.62013441       7.29121606        2       1.00000000       0.00000000       0.00000000       0.00000000       0.00000000       0.00000000       0.00000000
H        1.40307756       4.05033604       7.29121606        2       1.00000000       0.00000000       0.00000000       0.00000000       0.00000000       0.00000000       0.00000000
H        4.20923268       4.05033604       7.29121606        2       1.00000000       0.00000000       0.00000000       0.00000000       0.00000000       0.00000000       0.00000000
H        0.00000000       0.00000000       9.58243212        1       1.00000000       0.00000000       0.00000000       0.00000000       0.00000000       0.00000000       0.00000000
H        2.80615512       0.00000000       9.58243212        1       1.00000000       0.00000000       0.00000000       0.00000000       0.00000000       0.00000000       0.00000000
H        1.40307756       2.43020162       9.58243212        1       1.00000000       0.00000000       0.00000000       0.00000000       0.00000000       0.00000000       0.00000000
H        4.20923268       2.43020162       9.58243212        1       1.00000000       0.00000000       0.00000000       0.00000000       0.00000000       0.00000000       0.00000000
H        4.20923334       2.43020185       2.77172651        0       1.00000000       0.00000050       0.00000061      -0.00000014       0.00000206       0.00000158      -0.00000042
H       -0.00000000       0.00000012       2.77172644        0       1.00000000      -0.00000051      -0.00000020       0.00000053      -0.00000108      -0.00000002      -0.00000063
H        4.21916293       4.05018995      11.81113068        0       1.00000000       0.00000073      -0.00000064      -0.00000035       0.00000063       0.00000020      -0.00000062
H        2.80615492      -0.00000011       2.77172696        0       1.00000000       0.00000079      -0.00000094      -0.00000097       0.00000047       0.00000053      -0.00000036
H        2.79622320       1.61998781      11.81113001        0       1.00000000      -0.00000006      -0.00000066      -0.00000047      -0.00000130       0.00000045      -0.00000064
H        1.40307748       2.43020139       2.77172662        0       1.00000000       0.00000107      -0.00000076       0.00000014      -0.00000136      -0.00000171       0.00000198
18
Lattice="5.612310241546866 0.0 0.0 0.0 4.860403243099165 0.0 0.0 0.0 14.582432123328676" Properties=species:S:1:pos:R:3:tags:I:1:masses:R:1:momenta:R:3:forces:R:3 KEmax=23.26679191048647 iter=116265 volume=397.78090899293073 ns_energy=-11.63665137402992 last_walked_iter_clone=114347 energy=-11.636651374032539 stress="0.02259560453686614 -2.025374307714792e-09 6.926066054015399e-09 -2.025374307714792e-09 0.02271002668989612 -6.230764648326466e-09 6.926066054015399e-09 -6.230764648326466e-09 0.012378212824412656" pbc="T T F"
H        1.40307756       0.81006721       5.00000000        3       1.00000000       0.00000000       0.00000000       0.00000000       0.00000000       0.00000000       0.00000000
H        4.20923268       0.81006721       5.00000000        3       1.00000000       0.00000000       0.00000000       0.00000000       0.00000000       0.00000000       0.00000000
H        0.00000000       3.24026883       5.00000000        3       1.00000000       0.00000000       0.00000000       0.00000000       0.00000000       0.00000000       0.00000000
H        2.80615512       3.24026883       5.00000000        3       1.00000000       0.00000000       0.00000000       0.00000000       0.00000000       0.00000000       0.00000000
H        0.00000000       1.62013441       7.29121606        2       1.00000000       0.00000000       0.00000000       0.00000000       0.00000000       0.00000000       0.00000000
H        2.80615512       1.62013441       7.29121606        2       1.00000000       0.00000000       0.00000000       0.00000000       0.00000000       0.00000000       0.00000000
H        1.40307756       4.05033604       7.29121606        2       1.00000000       0.00000000       0.00000000       0.00000000       0.00000000       0.00000000       0.00000000
H        4.20923268       4.05033604       7.29121606        2       1.00000000       0.00000000       0.00000000       0.00000000       0.00000000       0.00000000       0.00000000
H        0.00000000       0.00000000       9.58243212        1       1.00000000       0.00000000       0.00000000       0.00000000       0.00000000       0.00000000       0.00000000
H        2.80615512       0.00000000       9.58243212        1       1.00000000       0.00000000       0.00000000       0.00000000       0.00000000       0.00000000       0.00000000
H        1.40307756       2.43020162       9.58243212        1       1.00000000       0.00000000       0.00000000       0.00000000       0.00000000       0.00000000       0.00000000
H        4.20923268       2.43020162       9.58243212        1       1.00000000       0.00000000       0.00000000       0.00000000       0.00000000       0.00000000       0.00000000
H        4.20923232       2.43020190       2.77172709        0       1.00000000      -0.00000186       0.00000004      -0.00000107       0.00000206       0.00000158      -0.00000042
H       -0.00000005       4.86040358       2.77172728        0       1.00000000       0.00000063       0.00000009      -0.00000011      -0.00000108      -0.00000002      -0.00000063
H        4.21916369       4.05018926      11.81112992        0       1.00000000      -0.00000008       0.00000005      -0.00000053       0.00000063       0.00000020      -0.00000062
H        2.80615478       0.00000054       2.77172715        0       1.00000000       0.00000015      -0.00000118      -0.00000047       0.00000047       0.00000053      -0.00000036
H        2.79622357       1.61998809      11.81113026        0       1.00000000      -0.00000012      -0.00000060      -0.00000085      -0.00000130       0.00000045      -0.00000064
H        1.40307723       2.43020202       2.77172731        0       1.00000000      -0.00000002       0.00000008      -0.00000125      -0.00000136      -0.00000171       0.00000198
18
Lattice="5.612310241546866 0.0 0.0 0.0 4.860403243099165 0.0 0.0 0.0 14.582432123328676" Properties=species:S:1:pos:R:3:tags:I:1:masses:R:1:momenta:R:3:forces:R:3 KEmax=23.26679191048647 iter=116265 volume=397.78090899293073 ns_energy=-11.636651374029414 last_walked_iter_clone=114439 energy=-11.636651374032539 stress="0.02259560453686614 -2.025374307714792e-09 6.926066054015399e-09 -2.025374307714792e-09 0.02271002668989612 -6.230764648326466e-09 6.926066054015399e-09 -6.230764648326466e-09 0.012378212824412656" pbc="T T F"
H        1.40307756       0.81006721       5.00000000        3       1.00000000       0.00000000       0.00000000       0.00000000       0.00000000       0.00000000       0.00000000
H        4.20923268       0.81006721       5.00000000        3       1.00000000       0.00000000       0.00000000       0.00000000       0.00000000       0.00000000       0.00000000
H        0.00000000       3.24026883       5.00000000        3       1.00000000       0.00000000       0.00000000       0.00000000       0.00000000       0.00000000       0.00000000
H        2.80615512       3.24026883       5.00000000        3       1.00000000       0.00000000       0.00000000       0.00000000       0.00000000       0.00000000       0.00000000
H        0.00000000       1.62013441       7.29121606        2       1.00000000       0.00000000       0.00000000       0.00000000       0.00000000       0.00000000       0.00000000
H        2.80615512       1.62013441       7.29121606        2       1.00000000       0.00000000       0.00000000       0.00000000       0.00000000       0.00000000       0.00000000
H        1.40307756       4.05033604       7.29121606        2       1.00000000       0.00000000       0.00000000       0.00000000       0.00000000       0.00000000       0.00000000
H        4.20923268       4.05033604       7.29121606        2       1.00000000       0.00000000       0.00000000       0.00000000       0.00000000       0.00000000       0.00000000
H        0.00000000       0.00000000       9.58243212        1       1.00000000       0.00000000       0.00000000       0.00000000       0.00000000       0.00000000       0.00000000
H        2.80615512       0.00000000       9.58243212        1       1.00000000       0.00000000       0.00000000       0.00000000       0.00000000       0.00000000       0.00000000
H        1.40307756       2.43020162       9.58243212        1       1.00000000       0.00000000       0.00000000       0.00000000       0.00000000       0.00000000       0.00000000
H        4.20923268       2.43020162       9.58243212        1       1.00000000       0.00000000       0.00000000       0.00000000       0.00000000       0.00000000       0.00000000
H        4.20923272       2.43020126       2.77172731        0       1.00000000      -0.00000046       0.00000040      -0.00000109       0.00000206       0.00000158      -0.00000042
H        5.61231049      -0.00000005       2.77172678        0       1.00000000      -0.00000145      -0.00000057      -0.00000043      -0.00000108      -0.00000002      -0.00000063
H        4.21916492       4.05018855      11.81113092        0       1.00000000      -0.00000049       0.00000042       0.00000006       0.00000063       0.00000020      -0.00000062
H        2.80615521      -0.00000052       2.77172712        0       1.00000000      -0.00000039       0.00000030       0.00000047       0.00000047       0.00000053      -0.00000036
H        2.79622334       1.61998626      11.81113034        0       1.00000000      -0.00000044      -0.00000039       0.00000123      -0.00000130       0.00000045      -0.00000064
H        1.40307789       2.43020108       2.77172678        0       1.00000000       0.00000033       0.00000052       0.00000023      -0.00000136      -0.00000171       0.00000198
18
Lattice="5.612310241546866 0.0 0.0 0.0 4.860403243099165 0.0 0.0 0.0 14.582432123328676" Properties=species:S:1:pos:R:3:tags:I:1:masses:R:1:momenta:R:3:forces:R:3 KEmax=23.26679191048647 iter=116265 volume=397.78090899293073 ns_energy=-11.636651374029388 last_walked_iter_clone=116264 energy=-11.636651374032539 stress="0.02259560453686614 -2.025374307714792e-09 6.926066054015399e-09 -2.025374307714792e-09 0.02271002668989612 -6.230764648326466e-09 6.926066054015399e-09 -6.230764648326466e-09 0.012378212824412656" pbc="T T F"
H        1.40307756       0.81006721       5.00000000        3       1.00000000       0.00000000       0.00000000       0.00000000       0.00000000       0.00000000       0.00000000
H        4.20923268       0.81006721       5.00000000        3       1.00000000       0.00000000       0.00000000       0.00000000       0.00000000       0.00000000       0.00000000
H        0.00000000       3.24026883       5.00000000        3       1.00000000       0.00000000       0.00000000       0.00000000       0.00000000       0.00000000       0.00000000
H        2.80615512       3.24026883       5.00000000        3       1.00000000       0.00000000       0.00000000       0.00000000       0.00000000       0.00000000       0.00000000
H        0.00000000       1.62013441       7.29121606        2       1.00000000       0.00000000       0.00000000       0.00000000       0.00000000       0.00000000       0.00000000
H        2.80615512       1.62013441       7.29121606        2       1.00000000       0.00000000       0.00000000       0.00000000       0.00000000       0.00000000       0.00000000
H        1.40307756       4.05033604       7.29121606        2       1.00000000       0.00000000       0.00000000       0.00000000       0.00000000       0.00000000       0.00000000
H        4.20923268       4.05033604       7.29121606        2       1.00000000       0.00000000       0.00000000       0.00000000       0.00000000       0.00000000       0.00000000
H        0.00000000       0.00000000       9.58243212        1       1.00000000       0.00000000       0.00000000       0.00000000       0.00000000       0.00000000       0.00000000
H        2.80615512       0.00000000       9.58243212        1       1.00000000       0.00000000       0.00000000       0.00000000       0.00000000       0.00000000       0.00000000
H        1.40307756       2.43020162       9.58243212        1       1.00000000       0.00000000       0.00000000       0.00000000       0.00000000       0.00000000       0.00000000
H        4.20923268       2.43020162       9.58243212        1       1.00000000       0.00000000       0.00000000       0.00000000       0.00000000       0.00000000       0.00000000
H        4.20923211       2.43020046       2.77172677        0       1.00000000       0.00000001       0.00000005      -0.00000006       0.00000206       0.00000158      -0.00000042
H       -0.00000043      -0.00000084       2.77172727        0       1.00000000      -0.00000105       0.00000013      -0.00000049      -0.00000108      -0.00000002      -0.00000063
H        4.21916333       4.05018916      11.81113056        0       1.00000000      -0.00000112       0.00000085      -0.00000049       0.00000063       0.00000020      -0.00000062
H        2.80615483      -0.00000104       2.77172643        0       1.00000000      -0.00000024      -0.00000028      -0.00000115       0.00000047       0.00000053      -0.00000036
H        2.79622369       1.61998805      11.81113009        0       1.00000000       0.00000090       0.00000045       0.00000010      -0.00000130       0.00000045      -0.00000064
H        1.40307710       2.43020060       2.77172669        0       1.00000000      -0.00000021      -0.00000096       0.00000053      -0.00000136      -0.00000171       0.00000198
18
Lattice="5.612310241546866 0.0 0.0 0.0 4.860403243099165 0.0 0.0 0.0 14.582432123328676" Properties=species:S:1:pos:R:3:tags:I:1:masses:R:1:momenta:R:3:forces:R:3 KEmax=23.26679191048647 iter=116265 volume=397.78090899293073 ns_energy=-11.636651374029578 last_walked_iter_clone=115423 energy=-11.636651374032539 stress="0.02259560453686614 -2.025374307714792e-09 6.926066054015399e-09 -2.025374307714792e-09 0.02271002668989612 -6.230764648326466e-09 6.926066054015399e-09 -6.230764648326466e-09 0.012378212824412656" pbc="T T F"
H        1.40307756       0.81006721       5.00000000        3       1.00000000       0.00000000       0.00000000       0.00000000       0.00000000       0.00000000       0.00000000
H        4.20923268       0.81006721       5.00000000        3       1.00000000       0.00000000       0.00000000       0.00000000       0.00000000       0.00000000       0.00000000
H        0.00000000       3.24026883       5.00000000        3       1.00000000       0.00000000       0.00000000       0.00000000       0.00000000       0.00000000       0.00000000
H        2.80615512       3.24026883       5.00000000        3       1.00000000       0.00000000       0.00000000       0.00000000       0.00000000       0.00000000       0.00000000
H        0.00000000       1.62013441       7.29121606        2       1.00000000       0.00000000       0.00000000       0.00000000       0.00000000       0.00000000       0.00000000
H        2.80615512       1.62013441       7.29121606        2       1.00000000       0.00000000       0.00000000       0.00000000       0.00000000       0.00000000       0.00000000
H        1.40307756       4.05033604       7.29121606        2       1.00000000       0.00000000       0.00000000       0.00000000       0.00000000       0.00000000       0.00000000
H        4.20923268       4.05033604       7.29121606        2       1.00000000       0.00000000       0.00000000       0.00000000       0.00000000       0.00000000       0.00000000
H        0.00000000       0.00000000       9.58243212        1       1.00000000       0.00000000       0.00000000       0.00000000       0.00000000       0.00000000       0.00000000
H        2.80615512       0.00000000       9.58243212        1       1.00000000       0.00000000       0.00000000       0.00000000       0.00000000       0.00000000       0.00000000
H        1.40307756       2.43020162       9.58243212        1       1.00000000       0.00000000       0.00000000       0.00000000       0.00000000       0.00000000       0.00000000
H        4.20923268       2.43020162       9.58243212        1       1.00000000       0.00000000       0.00000000       0.00000000       0.00000000       0.00000000       0.00000000
H        4.20923242       2.43020180       2.77172732        0       1.00000000      -0.00000068      -0.00000017       0.00000027       0.00000206       0.00000158      -0.00000042
H        0.00000040      -0.00000039       2.77172697        0       1.00000000       0.00000125      -0.00000065      -0.00000002      -0.00000108      -0.00000002      -0.00000063
H        4.21916386       4.05018831      11.81113076        0       1.00000000      -0.00000079       0.00000098       0.00000097       0.00000063       0.00000020      -0.00000062
H        2.80615525       0.00000005       2.77172711        0       1.00000000      -0.00000096       0.00000031       0.00000157       0.00000047       0.00000053      -0.00000036
H        2.79622344       1.61998651      11.81113069        0       1.00000000       0.00000045      -0.00000039      -0.00000057      -0.00000130       0.00000045      -0.00000064
H        1.40307756       2.43020143       2.77172674        0       1.00000000      -0.00000002      -0.00000047      -0.00000041      -0.00000136      -0.00000171       0.00000198
18
Lattice="5.612310241546866 0.0 0.0 0.0 4.860403243099165 0.0 0.0 0.0 14.582432123328676" Properties=species:S:1:pos:R:3:tags:I:1:masses:R:1:momenta:R:3:forces:R:3 KEmax=23.26679191048647 iter=116265 volume=397.78090899293073 ns_energy=-11.6366513740294 last_walked_iter_clone=114348 energy=-11.636651374032539 stress="0.02259560453686614 -2.025374307714792e-09 6.926066054015399e-09 -2.025374307714792e-09 0.02271002668989612 -6.230764648326466e-09 6.926066054015399e-09 -6.230764648326466e-09 0.012378212824412656" pbc="T T F"
H        1.40307756       0.81006721       5.00000000        3       1.00000000       0.00000000       0.00000000       0.00000000       0.00000000       0.00000000       0.00000000
H        4.20923268       0.81006721       5.00000000        3       1.00000000       0.00000000       0.00000000       0.00000000       0.00000000       0.00000000       0.00000000
H        0.00000000       3.24026883       5.00000000        3       1.00000000       0.00000000       0.00000000       0.00000000       0.00000000       0.00000000       0.00000000
H        2.80615512       3.24026883       5.00000000        3       1.00000000       0.00000000       0.00000000       0.00000000       0.00000000       0.00000000       0.00000000
H        0.00000000       1.62013441       7.29121606        2       1.00000000       0.00000000       0.00000000       0.00000000       0.00000000       0.00000000       0.00000000
H        2.80615512       1.62013441       7.29121606        2       1.00000000       0.00000000       0.00000000       0.00000000       0.00000000       0.00000000       0.00000000
H        1.40307756       4.05033604       7.29121606        2       1.00000000       0.00000000       0.00000000       0.00000000       0.00000000       0.00000000       0.00000000
H        4.20923268       4.05033604       7.29121606        2       1.00000000       0.00000000       0.00000000       0.00000000       0.00000000       0.00000000       0.00000000
H        0.00000000       0.00000000       9.58243212        1       1.00000000       0.00000000       0.00000000       0.00000000       0.00000000       0.00000000       0.00000000
H        2.80615512       0.00000000       9.58243212        1       1.00000000       0.00000000       0.00000000       0.00000000       0.00000000       0.00000000       0.00000000
H        1.40307756       2.43020162       9.58243212        1       1.00000000       0.00000000       0.00000000       0.00000000       0.00000000       0.00000000       0.00000000
H        4.20923268       2.43020162       9.58243212        1       1.00000000       0.00000000       0.00000000       0.00000000       0.00000000       0.00000000       0.00000000
H        4.20923299       2.43020207       2.77172703        0       1.00000000      -0.00000077       0.00000076       0.00000057       0.00000206       0.00000158      -0.00000042
H        0.00000060       0.00000065       2.77172716        0       1.00000000       0.00000099      -0.00000059      -0.00000041      -0.00000108      -0.00000002      -0.00000063
H        4.21916333       4.05018878      11.81113007        0       1.00000000      -0.00000102       0.00000069       0.00000101       0.00000063       0.00000020      -0.00000062
H        2.80615536       0.00000025       2.77172710        0       1.00000000      -0.00000079       0.00000093       0.00000030       0.00000047       0.00000053      -0.00000036
H        2.79622389       1.61998751      11.81113033        0       1.00000000       0.00000069      -0.00000158      -0.00000022      -0.00000130       0.00000045      -0.00000064
H        1.40307758       2.43020217       2.77172723        0       1.00000000       0.00000069       0.00000017       0.00000029      -0.00000136      -0.00000171       0.00000198
18
Lattice="5.612310241546866 0.0 0.0 0.0 4.860403243099165 0.0 0.0 0.0 14.582432123328676" Properties=species:S:1:pos:R:3:tags:I:1:masses:R:1:momenta:R:3:forces:R:3 KEmax=23.26679191048647 iter=116265 volume=397.78090899293073 ns_energy=-11.636651374029636 last_walked_iter_clone=114810 energy=-11.636651374032539 stress="0.02259560453686614 -2.025374307714792e-09 6.926066054015399e-09 -2.025374307714792e-09 0.02271002668989612 -6.230764648326466e-09 6.926066054015399e-09 -6.230764648326466e-09 0.012378212824412656" pbc="T T F"
H        1.40307756       0.81006721       5.00000000        3       1.00000000       0.00000000       0.00000000       0.00000000       0.00000000       0.00000000       0.00000000
H        4.20923268       0.81006721       5.00000000        3       1.00000000       0.00000000       0.00000000       0.00000000       0.00000000       0.00000000       0.00000000
H        0.00000000       3.24026883       5.00000000        3       1.00000000       0.00000000       0.00000000       0.00000000       0.00000000       0.00000000       0.00000000
H        2.80615512       3.24026883       5.00000000        3       1.00000000       0.00000000       0.00000000       0.00000000       0.00000000       0.00000000       0.00000000
H        0.00000000       1.62013441       7.29121606        2       1.00000000       0.00000000       0.00000000       0.00000000       0.00000000       0.00000000       0.00000000
H        2.80615512       1.62013441       7.29121606        2       1.00000000       0.00000000       0.00000000       0.00000000       0.00000000       0.00000000       0.00000000
H        1.40307756       4.05033604       7.29121606        2       1.00000000       0.00000000       0.00000000       0.00000000       0.00000000       0.00000000       0.00000000
H        4.20923268       4.05033604       7.29121606        2       1.00000000       0.00000000       0.00000000       0.00000000       0.00000000       0.00000000       0.00000000
H        0.00000000       0.00000000       9.58243212        1       1.00000000       0.00000000       0.00000000       0.00000000       0.00000000       0.00000000       0.00000000
H        2.80615512       0.00000000       9.58243212        1       1.00000000       0.00000000       0.00000000       0.00000000       0.00000000       0.00000000       0.00000000
H        1.40307756       2.43020162       9.58243212        1       1.00000000       0.00000000       0.00000000       0.00000000       0.00000000       0.00000000       0.00000000
H        4.20923268       2.43020162       9.58243212        1       1.00000000       0.00000000       0.00000000       0.00000000       0.00000000       0.00000000       0.00000000
H        4.20923252       2.43020147       2.77172728        0       1.00000000      -0.00000035       0.00000050       0.00000064       0.00000206       0.00000158      -0.00000042
H       -0.00000021      -0.00000034       2.77172661        0       1.00000000       0.00000112      -0.00000075      -0.00000163      -0.00000108      -0.00000002      -0.00000063
H        4.21916327       4.05019001      11.81112964        0       1.00000000       0.00000055       0.00000022       0.00000038       0.00000063       0.00000020      -0.00000062