18
Lattice="5.612310241546866 0.0 0.0 0.0 4.860403243099165 0.0 0.0 0.0 14.582432123328676" Properties=species:S:1:pos:R:3:tags:I:1:masses:R:1:momenta:R:3:forces:R:3 KEmax=23.26679191048647 iter=119999 volume=397.78090899293073 ns_energy=-11.63665137402996 last_walked_iter_clone=118794 energy=-11.636651290690457 stress="0.022595589207130826 5.313110935118137e-09 3.6725715393608426e-09 5.313110935118137e-09 0.02271004310269754 -1.153088609874805e-08 3.6725715393608426e-09 -1.153088609874805e-08 0.012378156277116355" pbc="T T F"
H        1.40307756       0.81006721       5.00000000        3       1.00000000       0.00000000       0.00000000       0.00000000       0.00000000       0.00000000       0.00000000
H        4.20923268       0.81006721       5.00000000        3       1.00000000       0.00000000       0.00000000       0.00000000       0.00000000       0.00000000       0.00000000
H        0.00000000       3.24026883       5.00000000        3       1.00000000       0.00000000       0.00000000       0.00000000       0.00000000       0.00000000       0.00000000
H        2.80615512       3.24026883       5.00000000        3       1.00000000       0.00000000       0.00000000       0.00000000       0.00000000       0.00000000       0.00000000
H        0.00000000       1.62013441       7.29121606        2       1.00000000       0.00000000       0.00000000       0.00000000       0.00000000       0.00000000       0.00000000
H        2.80615512       1.62013441       7.29121606        2       1.00000000       0.00000000       0.00000000       0.00000000       0.00000000       0.00000000       0.00000000
H        1.40307756       4.05033604       7.29121606        2       1.00000000       0.00000000       0.00000000       0.00000000       0.00000000       0.00000000       0.00000000
H        4.20923268       4.05033604       7.29121606        2       1.00000000       0.00000000       0.00000000       0.00000000       0.00000000       0.00000000       0.00000000
H        0.00000000       0.00000000       9.58243212        1       1.00000000       0.00000000       0.00000000       0.00000000       0.00000000       0.00000000       0.00000000
H        2.80615512       0.00000000       9.58243212        1       1.00000000       0.00000000       0.00000000       0.00000000       0.00000000       0.00000000       0.00000000
H        1.40307756       2.43020162       9.58243212        1       1.00000000       0.00000000       0.00000000       0.00000000       0.00000000       0.00000000       0.00000000
H        4.20923268       2.43020162       9.58243212        1       1.00000000       0.00000000       0.00000000       0.00000000       0.00000000       0.00000000       0.00000000
H        4.20923307       2.43020133       2.77172716        0       1.00000000      -0.00000001      -0.00000032       0.00000059       0.00049692      -0.00023152       0.00000284
H        5.61230997      -0.00000017       2.77172717        0       1.00000000      -0.00000086       0.00000011      -0.00000043       0.00029464       0.00023741      -0.00000301
H        4.21916331       4.05018970      11.81112978        0       1.00000000       0.00000008      -0.00000014      -0.00000066      -0.00000092      -0.00000040       0.00000237
H        2.80615459      -0.00000061       2.77172715        0       1.00000000       0.00000013      -0.00000003       0.00000077      -0.00029280       0.00022730       0.00000045
H        2.79622404       1.61998761      11.81113056        0       1.00000000       0.00000079       0.00000018       0.00000137       0.00000109       0.00000040      -0.00000023
H        1.40307806       2.43020098       2.77172742        0       1.00000000       0.00000010      -0.00000016       0.00000141      -0.00049818      -0.00023403      -0.00000289
18
Lattice="5.612310241546866 0.0 0.0 0.0 4.860403243099165 0.0 0.0 0.0 14.582432123328676" Properties=species:S:1:pos:R:3:tags:I:1:masses:R:1:momenta:R:3:forces:R:3 KEmax=23.26679191048647 iter=119999 volume=397.78090899293073 ns_energy=-11.636651374029828 last_walked_iter_clone=116737 energy=-11.636651290690457 stress="0.022595589207130826 5.313110935118137e-09 3.6725715393608426e-09 5.313110935118137e-09 0.02271004310269754 -1.153088609874805e-08 3.6725715393608426e-09 -1.153088609874805e-08 0.012378156277116355" pbc="T T F"
H        1.40307756       0.81006721       5.00000000        3       1.00000000       0.00000000       0.00000000       0.00000000       0.00000000       0.00000000       0.00000000
H        4.20923268       0.81006721       5.00000000        3       1.00000000       0.00000000       0.00000000       0.00000000       0.00000000       0.00000000       0.00000000
H        0.00000000       3.24026883       5.00000000        3       1.00000000       0.00000000       0.00000000       0.00000000       0.00000000       0.00000000       0.00000000
H        2.80615512       3.24026883       5.00000000        3       1.00000000       0.00000000       0.00000000       0.00000000       0.00000000       0.00000000       0.00000000
H        0.00000000       1.62013441       7.29121606        2       1.00000000       0.00000000       0.00000000       0.00000000       0.00000000       0.00000000       0.00000000
H        2.80615512       1.62013441       7.29121606        2       1.00000000       0.00000000       0.00000000       0.00000000       0.00000000       0.00000000       0.00000000
H        1.40307756       4.05033604       7.29121606        2       1.00000000       0.00000000       0.00000000       0.00000000       0.00000000       0.00000000       0.00000000
H        4.20923268       4.05033604       7.29121606        2       1.00000000       0.00000000       0.00000000       0.00000000       0.00000000       0.00000000       0.00000000
H        0.00000000       0.00000000       9.58243212        1       1.00000000       0.00000000       0.00000000       0.00000000       0.00000000       0.00000000       0.00000000
H        2.80615512       0.00000000       9.58243212        1       1.00000000       0.00000000       0.00000000       0.00000000       0.00000000       0.00000000       0.00000000
H        1.40307756       2.43020162       9.58243212        1       1.00000000       0.00000000       0.00000000       0.00000000       0.00000000       0.00000000       0.00000000
H        4.20923268       2.43020162       9.58243212        1       1.00000000       0.00000000       0.00000000       0.00000000       0.00000000       0.00000000       0.00000000
H        4.20923205       2.43020185       2.77172651        0       1.00000000      -0.00000145      -0.00000037       0.00000023       0.00049692      -0.00023152       0.00000284
H       -0.00000036       0.00000027       2.77172722        0       1.00000000      -0.00000021      -0.00000040       0.00000099       0.00029464       0.00023741      -0.00000301
H        4.21916406       4.05018901      11.81113001        0       1.00000000      -0.00000004      -0.00000002       0.00000015      -0.00000092      -0.00000040       0.00000237
H        2.80615453       0.00000012       2.77172707        0       1.00000000      -0.00000034       0.00000068       0.00000042      -0.00029280       0.00022730       0.00000045
H        2.79622336       1.61998727      11.81113082        0       1.00000000      -0.00000132       0.00000052       0.00000063       0.00000109       0.00000040      -0.00000023
H        1.40307676       2.43020191       2.77172765        0       1.00000000       0.00000039      -0.00000058      -0.00000062      -0.00049818      -0.00023403      -0.00000289
18
Lattice="5.612310241546866 0.0 0.0 0.0 4.860403243099165 0.0 0.0 0.0 14.582432123328676" Properties=species:S:1:pos:R:3:tags:I:1:masses:R:1:momenta:R:3:forces:R:3 KEmax=23.26679191048647 iter=119999 volume=397.78090899293073 ns_energy=-11.63665137402992 last_walked_iter_clone=114347 energy=-11.636651290690457 stress="0.022595589207130826 5.313110935118137e-09 3.6725715393608426e-09 5.313110935118137e-09 0.02271004310269754 -1.153088609874805e-08 3.6725715393608426e-09 -1.153088609874805e-08 0.012378156277116355" pbc="T T F"
H        1.40307756       0.81006721       5.00000000        3       1.00000000       0.00000000       0.00000000       0.00000000       0.00000000       0.00000000       0.00000000
H        4.20923268       0.81006721       5.00000000        3       1.00000000       0.00000000       0.00000000       0.00000000       0.00000000       0.00000000       0.00000000
H        0.00000000       3.24026883       5.00000000        3       1.00000000       0.00000000       0.00000000       0.00000000       0.00000000       0.00000000       0.00000000
H        2.80615512       3.24026883       5.00000000        3       1.00000000       0.00000000       0.00000000       0.00000000       0.00000000       0.00000000       0.00000000
H        0.00000000       1.62013441       7.29121606        2       1.00000000       0.00000000       0.00000000       0.00000000       0.00000000       0.00000000       0.00000000
H        2.80615512       1.62013441       7.29121606        2       1.00000000       0.00000000       0.00000000       0.00000000       0.00000000       0.00000000       0.00000000
H        1.40307756       4.05033604       7.29121606        2       1.00000000       0.00000000       0.00000000       0.00000000       0.00000000       0.00000000       0.00000000
H        4.20923268       4.05033604       7.29121606        2       1.00000000       0.00000000       0.00000000       0.00000000       0.00000000       0.00000000       0.00000000
H        0.00000000       0.00000000       9.58243212        1       1.00000000       0.00000000       0.00000000       0.00000000       0.00000000       0.00000000       0.00000000
H        2.80615512       0.00000000       9.58243212        1       1.00000000       0.00000000       0.00000000       0.00000000       0.00000000       0.00000000       0.00000000
H        1.40307756       2.43020162       9.58243212        1       1.00000000       0.00000000       0.00000000       0.00000000       0.00000000       0.00000000       0.00000000
H        4.20923268       2.43020162       9.58243212        1       1.00000000       0.00000000       0.00000000       0.00000000       0.00000000       0.00000000       0.00000000
H        4.20923232       2.43020190       2.77172709        0       1.00000000      -0.00000186       0.00000004      -0.00000107       0.00049692      -0.00023152       0.00000284
H       -0.00000005       4.86040358       2.77172728        0       1.00000000       0.00000063       0.00000009      -0.00000011       0.00029464       0.00023741      -0.00000301
H        4.21916369       4.05018926      11.81112992        0       1.00000000      -0.00000008       0.00000005      -0.00000053      -0.00000092      -0.00000040       0.00000237
H        2.80615478       0.00000054       2.77172715        0       1.00000000       0.00000015      -0.00000118      -0.00000047      -0.00029280       0.00022730       0.00000045
H        2.79622357       1.61998809      11.81113026        0       1.00000000      -0.00000012      -0.00000060      -0.00000085       0.00000109       0.00000040      -0.00000023
H        1.40307723       2.43020202       2.77172731        0       1.00000000      -0.00000002       0.00000008      -0.00000125      -0.00049818      -0.00023403      -0.00000289
18
Lattice="5.612310241546866 0.0 0.0 0.0 4.860403243099165 0.0 0.0 0.0 14.582432123328676" Properties=species:S:1:pos:R:3:tags:I:1:masses:R:1:momenta:R:3:forces:R:3 KEmax=23.26679191048647 iter=119999 volume=397.78090899293073 ns_energy=-11.636651374029977 last_walked_iter_clone=119314 energy=-11.636651290690457 stress="0.022595589207130826 5.313110935118137e-09 3.6725715393608426e-09 5.313110935118137e-09 0.02271004310269754 -1.153088609874805e-08 3.6725715393608426e-09 -1.153088609874805e-08 0.012378156277116355" pbc="T T F"
H        1.40307756       0.81006721       5.00000000        3       1.00000000       0.00000000       0.00000000       0.00000000       0.00000000       0.00000000       0.00000000
H        4.20923268       0.81006721       5.00000000        3       1.00000000       0.00000000       0.00000000       0.00000000       0.00000000       0.00000000       0.00000000
H        0.00000000       3.24026883       5.00000000        3       1.00000000       0.00000000       0.00000000       0.00000000       0.00000000       0.00000000       0.00000000
H        2.80615512       3.24026883       5.00000000        3       1.00000000       0.00000000       0.00000000       0.00000000       0.00000000       0.00000000       0.00000000
H        0.00000000       1.62013441       7.29121606        2       1.00000000       0.00000000       0.00000000       0.00000000       0.00000000       0.00000000       0.00000000
H        2.80615512       1.62013441       7.29121606        2       1.00000000       0.00000000       0.00000000       0.00000000       0.00000000       0.00000000       0.00000000
H        1.40307756       4.05033604       7.29121606        2       1.00000000       0.00000000       0.00000000       0.00000000       0.00000000       0.00000000       0.00000000
H        4.20923268       4.05033604       7.29121606        2       1.00000000       0.00000000       0.00000000       0.00000000       0.00000000       0.00000000       0.00000000
H        0.00000000       0.00000000       9.58243212        1       1.00000000       0.00000000       0.00000000       0.00000000       0.00000000       0.00000000       0.00000000
H        2.80615512       0.00000000       9.58243212        1       1.00000000       0.00000000       0.00000000       0.00000000       0.00000000       0.00000000       0.00000000
H        1.40307756       2.43020162       9.58243212        1       1.00000000       0.00000000       0.00000000       0.00000000       0.00000000       0.00000000       0.00000000
H        4.20923268       2.43020162       9.58243212        1       1.00000000       0.00000000       0.00000000       0.00000000       0.00000000       0.00000000       0.00000000
H        4.20923260       2.43020112       2.77172646        0       1.00000000      -0.00000052       0.00000056      -0.00000046       0.00049692      -0.00023152       0.00000284
H        5.61231003      -0.00000032       2.77172687        0       1.00000000      -0.00000058      -0.00000046       0.00000049       0.00029464       0.00023741      -0.00000301
H        4.21916321       4.05018953      11.81113030        0       1.00000000       0.00000069       0.00000013       0.00000074      -0.00000092      -0.00000040       0.00000237
H        2.80615561       4.86040318       2.77172706        0       1.00000000       0.00000085      -0.00000009      -0.00000079      -0.00029280       0.00022730       0.00000045
H        2.79622337       1.61998840      11.81113040        0       1.00000000       0.00000028      -0.00000018       0.00000180       0.00000109       0.00000040      -0.00000023
H        1.40307736       2.43020141       2.77172726        0       1.00000000       0.00000001       0.00000086      -0.00000006      -0.00049818      -0.00023403      -0.00000289
18
Lattice="5.612310241546866 0.0 0.0 0.0 4.860403243099165 0.0 0.0 0.0 14.582432123328676" Properties=species:S:1:pos:R:3:tags:I:1:masses:R:1:momenta:R:3:forces:R:3 KEmax=23.26679191048647 iter=119999 volume=397.78090899293073 ns_energy=-11.636651374030052 last_walked_iter_clone=118590 energy=-11.636651290690457 stress="0.022595589207130826 5.313110935118137e-09 3.6725715393608426e-09 5.313110935118137e-09 0.02271004310269754 -1.153088609874805e-08 3.6725715393608426e-09 -1.153088609874805e-08 0.012378156277116355" pbc="T T F"
H        1.40307756       0.81006721       5.00000000        3       1.00000000       0.00000000       0.00000000       0.00000000       0.00000000       0.00000000       0.00000000
H        4.20923268       0.81006721       5.00000000        3       1.00000000       0.00000000       0.00000000       0.00000000       0.00000000       0.00000000       0.00000000
H        0.00000000       3.24026883       5.00000000        3       1.00000000       0.00000000       0.00000000       0.00000000       0.00000000       0.00000000       0.00000000
H        2.80615512       3.24026883       5.00000000        3       1.00000000       0.00000000       0.00000000       0.00000000       0.00000000       0.00000000       0.00000000
H        0.00000000       1.62013441       7.29121606        2       1.00000000       0.00000000       0.00000000       0.00000000       0.00000000       0.00000000       0.00000000
H        2.80615512       1.62013441       7.29121606        2       1.00000000       0.00000000       0.00000000       0.00000000       0.00000000       0.00000000       0.00000000
H        1.40307756       4.05033604       7.29121606        2       1.00000000       0.00000000       0.00000000       0.00000000       0.00000000       0.00000000       0.00000000
H        4.20923268       4.05033604       7.29121606        2       1.00000000       0.00000000       0.00000000       0.00000000       0.00000000       0.00000000       0.00000000
H        0.00000000       0.00000000       9.58243212        1       1.00000000       0.00000000       0.00000000       0.00000000       0.00000000       0.00000000       0.00000000
H        2.80615512       0.00000000       9.58243212        1       1.00000000       0.00000000       0.00000000       0.00000000       0.00000000       0.00000000       0.00000000
H        1.40307756       2.43020162       9.58243212        1       1.00000000       0.00000000       0.00000000       0.00000000       0.00000000       0.00000000       0.00000000
H        4.20923268       2.43020162       9.58243212        1       1.00000000       0.00000000       0.00000000       0.00000000       0.00000000       0.00000000       0.00000000
H        4.20923275       2.43020178       2.77172718        0       1.00000000       0.00000044      -0.00000042      -0.00000027       0.00049692      -0.00023152       0.00000284
H        0.00000019       0.00000017       2.77172714        0       1.00000000      -0.00000026      -0.00000049       0.00000089       0.00029464       0.00023741      -0.00000301
H        4.21916339       4.05018940      11.81113048        0       1.00000000       0.00000043       0.00000166       0.00000042      -0.00000092      -0.00000040       0.00000237
H        2.80615549      -0.00000035       2.77172699        0       1.00000000       0.00000049      -0.00000038       0.00000061      -0.00029280       0.00022730       0.00000045
H        2.79622397       1.61998811      11.81113054        0       1.00000000       0.00000048       0.00000007      -0.00000119       0.00000109       0.00000040      -0.00000023
H        1.40307800       2.43020154       2.77172754        0       1.00000000      -0.00000010       0.00000108       0.00000139      -0.00049818      -0.00023403      -0.00000289
18
Lattice="5.612310241546866 0.0 0.0 0.0 4.860403243099165 0.0 0.0 0.0 14.582432123328676" Properties=species:S:1:pos:R:3:tags:I:1:masses:R:1:momenta:R:3:forces:R:3 KEmax=23.26679191048647 iter=119999 volume=397.78090899293073 ns_energy=-11.636651374029826 last_walked_iter_clone=117802 energy=-11.636651290690457 stress="0.022595589207130826 5.313110935118137e-09 3.6725715393608426e-09 5.313110935118137e-09 0.02271004310269754 -1.153088609874805e-08 3.6725715393608426e-09 -1.153088609874805e-08 0.012378156277116355" pbc="T T F"
H        1.40307756       0.81006721       5.00000000        3       1.00000000       0.00000000       0.00000000       0.00000000       0.00000000       0.00000000       0.00000000
H        4.20923268       0.81006721       5.00000000        3       1.00000000       0.00000000       0.00000000       0.00000000       0.00000000       0.00000000       0.00000000
H        0.00000000       3.24026883       5.00000000        3       1.00000000       0.00000000       0.00000000       0.00000000       0.00000000       0.00000000       0.00000000
H        2.80615512       3.24026883       5.00000000        3       1.00000000       0.00000000       0.00000000       0.00000000       0.00000000       0.00000000       0.00000000
H        0.00000000       1.62013441       7.29121606        2       1.00000000       0.00000000       0.00000000       0.00000000       0.00000000       0.00000000       0.00000000
H        2.80615512       1.62013441       7.29121606        2       1.00000000       0.00000000       0.00000000       0.00000000       0.00000000       0.00000000       0.00000000
H        1.40307756       4.05033604       7.29121606        2       1.00000000       0.00000000       0.00000000       0.00000000       0.00000000       0.00000000       0.00000000
H        4.20923268       4.05033604       7.29121606        2       1.00000000       0.00000000       0.00000000       0.00000000       0.00000000       0.00000000       0.00000000
H        0.00000000       0.00000000       9.58243212        1       1.00000000       0.00000000       0.00000000       0.00000000       0.00000000       0.00000000       0.00000000
H        2.80615512       0.00000000       9.58243212        1       1.00000000       0.00000000       0.00000000       0.00000000       0.00000000       0.00000000       0.00000000
H        1.40307756       2.43020162       9.58243212        1       1.00000000       0.00000000       0.00000000       0.00000000       0.00000000       0.00000000       0.00000000
H        4.20923268       2.43020162       9.58243212        1       1.00000000       0.00000000       0.00000000       0.00000000       0.00000000       0.00000000       0.00000000
H        4.20923281       2.43020206       2.77172706        0       1.00000000      -0.00000091      -0.00000003       0.00000006       0.00049692      -0.00023152       0.00000284
H        5.61231066       0.00000058       2.77172698        0       1.00000000       0.00000068       0.00000023       0.00000116       0.00029464       0.00023741      -0.00000301
H        4.21916415       4.05018903      11.81113001        0       1.00000000       0.00000164       0.00000033      -0.00000018      -0.00000092      -0.00000040       0.00000237
H        2.80615562       4.86040366       2.77172722        0       1.00000000      -0.00000038      -0.00000019      -0.00000021      -0.00029280       0.00022730       0.00000045
H        2.79622361       1.61998800      11.81113013        0       1.00000000       0.00000066       0.00000115       0.00000043       0.00000109       0.00000040      -0.00000023
H        1.40307762       2.43020191       2.77172705        0       1.00000000      -0.00000098       0.00000060       0.00000075      -0.00049818      -0.00023403      -0.00000289
18
Lattice="5.612310241546866 0.0 0.0 0.0 4.860403243099165 0.0 0.0 0.0 14.582432123328676" Properties=species:S:1:pos:R:3:tags:I:1:masses:R:1:momenta:R:3:forces:R:3 KEmax=23.26679191048647 iter=119999 volume=397.78090899293073 ns_energy=-11.636651374030036 last_walked_iter_clone=119020 energy=-11.636651290690457 stress="0.022595589207130826 5.313110935118137e-09 3.6725715393608426e-09 5.313110935118137e-09 0.02271004310269754 -1.153088609874805e-08 3.6725715393608426e-09 -1.153088609874805e-08 0.012378156277116355" pbc="T T F"
H        1.40307756       0.81006721       5.00000000        3       1.00000000       0.00000000       0.00000000       0.00000000       0.00000000       0.00000000       0.00000000
H        4.20923268       0.81006721       5.00000000        3       1.00000000       0.00000000       0.00000000       0.00000000       0.00000000       0.00000000       0.00000000
H        0.00000000       3.24026883       5.00000000        3       1.00000000       0.00000000       0.00000000       0.00000000       0.00000000       0.00000000       0.00000000
H        2.80615512       3.24026883       5.00000000        3       1.00000000       0.00000000       0.00000000       0.00000000       0.00000000       0.00000000       0.00000000
H        0.00000000       1.62013441       7.29121606        2       1.00000000       0.00000000       0.00000000       0.00000000       0.00000000       0.00000000       0.00000000
H        2.80615512       1.62013441       7.29121606        2       1.00000000       0.00000000       0.00000000       0.00000000       0.00000000       0.00000000       0.00000000
H        1.40307756       4.05033604       7.29121606        2       1.00000000       0.00000000       0.00000000       0.00000000       0.00000000       0.00000000       0.00000000
H        4.20923268       4.05033604       7.29121606        2       1.00000000       0.00000000       0.00000000       0.00000000       0.00000000       0.00000000       0.00000000
H        0.00000000       0.00000000       9.58243212        1       1.00000000       0.00000000       0.00000000       0.00000000       0.00000000       0.00000000       0.00000000
H        2.80615512       0.00000000       9.58243212        1       1.00000000       0.00000000       0.00000000       0.00000000       0.00000000       0.00000000       0.00000000
H        1.40307756       2.43020162       9.58243212        1       1.00000000       0.00000000       0.00000000       0.00000000       0.00000000       0.00000000       0.00000000
H        4.20923268       2.43020162       9.58243212        1       1.00000000       0.00000000       0.00000000       0.00000000       0.00000000       0.00000000       0.00000000
H        4.20923286       2.43020160       2.77172726        0       1.00000000      -0.00000020       0.00000082       0.00000020       0.00049692      -0.00023152       0.00000284
H        0.00000003       4.86040274       2.77172671        0       1.00000000      -0.00000088      -0.00000038      -0.00000020       0.00029464       0.00023741      -0.00000301
H        4.21916293       4.05018993      11.81112965        0       1.00000000       0.00000065       0.00000039       0.00000081      -0.00000092      -0.00000040       0.00000237
H        2.80615491      -0.00000024       2.77172761        0       1.00000000      -0.00000105      -0.00000003      -0.00000080      -0.00029280       0.00022730       0.00000045
H        2.79622350       1.61998806      11.81113109        0       1.00000000      -0.00000038      -0.00000072      -0.00000002       0.00000109       0.00000040      -0.00000023
H        1.40307779       2.43020135       2.77172736        0       1.00000000      -0.00000036      -0.00000054      -0.00000001      -0.00049818      -0.00023403      -0.00000289
18
Lattice="5.612310241546866 0.0 0.0 0.0 4.860403243099165 0.0 0.0 0.0 14.582432123328676" Properties=species:S:1:pos:R:3:tags:I:1:masses:R:1:momenta:R:3:forces:R:3 KEmax=23.26679191048647 iter=119999 volume=397.78090899293073 ns_energy=-11.636651374029856 last_walked_iter_clone=118980 energy=-11.636651290690457 stress="0.022595589207130826 5.313110935118137e-09 3.6725715393608426e-09 5.313110935118137e-09 0.02271004310269754 -1.153088609874805e-08 3.6725715393608426e-09 -1.153088609874805e-08 0.012378156277116355" pbc="T T F"
H        1.40307756       0.81006721       5.00000000        3       1.00000000       0.00000000       0.00000000       0.00000000       0.00000000       0.00000000       0.00000000
H        4.20923268       0.81006721       5.00000000        3       1.00000000       0.00000000       0.00000000       0.00000000       0.00000000       0.00000000       0.00000000
H        0.00000000       3.24026883       5.00000000        3       1.00000000       0.00000000       0.00000000       0.00000000       0.00000000       0.00000000       0.00000000
H        2.80615512       3.24026883       5.00000000        3       1.00000000       0.00000000       0.00000000       0.00000000       0.00000000       0.00000000       0.00000000
H        0.00000000       1.62013441       7.29121606        2       1.00000000       0.00000000       0.00000000       0.00000000       0.00000000       0.00000000       0.00000000
H        2.80615512       1.62013441       7.29121606        2       1.00000000       0.00000000       0.00000000       0.00000000       0.00000000       0.00000000       0.00000000
H        1.40307756       4.05033604       7.29121606        2       1.00000000       0.00000000       0.00000000       0.00000000       0.00000000       0.00000000       0.00000000
H        4.20923268       4.05033604       7.29121606        2       1.00000000       0.00000000       0.00000000       0.00000000       0.00000000       0.00000000       0.00000000
H        0.00000000       0.00000000       9.58243212        1       1.00000000       0.00000000       0.00000000       0.00000000       0.00000000       0.00000000       0.00000000
H        2.80615512       0.00000000       9.58243212        1       1.00000000       0.00000000       0.00000000       0.00000000       0.00000000       0.00000000       0.00000000
H        1.40307756       2.43020162       9.58243212        1       1.00000000       0.00000000       0.00000000       0.00000000       0.00000000       0.00000000       0.00000000
H        4.20923268       2.43020162       9.58243212        1       1.00000000       0.00000000       0.00000000       0.00000000       0.00000000       0.00000000       0.00000000
H        4.20923298       2.43020186       2.77172729        0       1.00000000       0.00000117      -0.00000015       0.00000003       0.00049692      -0.00023152       0.00000284
H       -0.00000032       0.00000023       2.77172713        0       1.00000000      -0.00000083       0.00000065      -0.00000045       0.00029464       0.00023741      -0.00000301
H        4.21916347       4.05018943      11.81113027        0       1.00000000      -0.00000179      -0.00000122      -0.00000014      -0.00000092      -0.00000040       0.00000237