18
Lattice="5.612310241546866 0.0 0.0 0.0 4.860403243099165 0.0 0.0 0.0 14.582432123328676" Properties=species:S:1:pos:R:3:tags:I:1:masses:R:1:momenta:R:3 KEmax=23.26679191048647 iter=99 volume=397.78090899293073 ns_energy=14333.696208126237 ns_P=0.0 config_n_global=99 ns_KE=10.75867381265064 pbc="T T F"
H        1.40307756       0.81006721       5.00000000        3       1.00000000       0.00000000       0.00000000       0.00000000
H        4.20923268       0.81006721       5.00000000        3       1.00000000       0.00000000       0.00000000       0.00000000
H        0.00000000       3.24026883       5.00000000        3       1.00000000       0.00000000       0.00000000       0.00000000
H        2.80615512       3.24026883       5.00000000        3       1.00000000       0.00000000       0.00000000       0.00000000
H        0.00000000       1.62013441       7.29121606        2       1.00000000       0.00000000       0.00000000       0.00000000
H        2.80615512       1.62013441       7.29121606        2       1.00000000       0.00000000       0.00000000       0.00000000
H        1.40307756       4.05033604       7.29121606        2       1.00000000       0.00000000       0.00000000       0.00000000
H        4.20923268       4.05033604       7.29121606        2       1.00000000       0.00000000       0.00000000       0.00000000
H        0.00000000       0.00000000       9.58243212        1       1.00000000       0.00000000       0.00000000       0.00000000
H        2.80615512       0.00000000       9.58243212        1       1.00000000       0.00000000       0.00000000       0.00000000
H        1.40307756       2.43020162       9.58243212        1       1.00000000       0.00000000       0.00000000       0.00000000
H        4.20923268       2.43020162       9.58243212        1       1.00000000       0.00000000       0.00000000       0.00000000
H        1.32723937       2.38524852       2.25710363        0       1.00000000      -1.26787539      -0.44812675       2.46332484
H        4.47214401       4.11245095       2.70218711        0       1.00000000      -1.37406980       1.92539214       0.32870712
H        1.52783507       4.84041086      12.22061662        0       1.00000000      -0.88068959      -1.73872250       0.35838961
H        1.43356045       3.42206720       2.21895881        0       1.00000000      -1.28480381       0.25071447      -0.05560328
H        2.17188474       2.50092966      12.30595289        0       1.00000000      -0.38664281      -0.47366175      -0.81861215
H        1.45410513       0.49401262       2.15059548        0       1.00000000      -0.65087039      -0.68337092       0.59942979
18
Lattice="5.612310241546866 0.0 0.0 0.0 4.860403243099165 0.0 0.0 0.0 14.582432123328676" Properties=species:S:1:pos:R:3:tags:I:1:masses:R:1:momenta:R:3 KEmax=23.26679191048647 iter=199 volume=397.78090899293073 ns_energy=958.3928375505114 last_walked_iter_clone=113 ns_P=0.0 config_n_global=199 ns_KE=21.760955469007197 pbc="T T F"
H        1.40307756       0.81006721       5.00000000        3       1.00000000       0.00000000       0.00000000       0.00000000
H        4.20923268       0.81006721       5.00000000        3       1.00000000       0.00000000       0.00000000       0.00000000
H        0.00000000       3.24026883       5.00000000        3       1.00000000       0.00000000       0.00000000       0.00000000
H        2.80615512       3.24026883       5.00000000        3       1.00000000       0.00000000       0.00000000       0.00000000
H        0.00000000       1.62013441       7.29121606        2       1.00000000       0.00000000       0.00000000       0.00000000
H        2.80615512       1.62013441       7.29121606        2       1.00000000       0.00000000       0.00000000       0.00000000
H        1.40307756       4.05033604       7.29121606        2       1.00000000       0.00000000       0.00000000       0.00000000
H        4.20923268       4.05033604       7.29121606        2       1.00000000       0.00000000       0.00000000       0.00000000
H        0.00000000       0.00000000       9.58243212        1       1.00000000       0.00000000       0.00000000       0.00000000
H        2.80615512       0.00000000       9.58243212        1       1.00000000       0.00000000       0.00000000       0.00000000
H        1.40307756       2.43020162       9.58243212        1       1.00000000       0.00000000       0.00000000       0.00000000
H        4.20923268       2.43020162       9.58243212        1       1.00000000       0.00000000       0.00000000       0.00000000
H        2.04738489       4.10178081       2.56481647        0       1.00000000      -2.79847709      -1.06133794       0.81108847
H        0.70199079       3.37751601       2.03524636        0       1.00000000      -0.11238982      -0.13260484       1.10470968
H        5.35128788       0.63774788      11.82404547        0       1.00000000      -0.98633402       1.06207966      -1.07874889
H        4.45193480       1.71099078       2.54987272        0       1.00000000       1.33372245      -3.49359465      -1.93115787
H        4.53121707       3.99003269      11.70312039        0       1.00000000       1.48239022      -2.70282233      -1.11759659
H        5.01274166       3.57436831       2.11870991        0       1.00000000       0.75228038      -0.07391131      -0.59534697
18
Lattice="5.612310241546866 0.0 0.0 0.0 4.860403243099165 0.0 0.0 0.0 14.582432123328676" Properties=species:S:1:pos:R:3:tags:I:1:masses:R:1:momenta:R:3 KEmax=23.26679191048647 iter=299 volume=397.78090899293073 ns_energy=60.913940678375496 last_walked_iter_clone=215 ns_P=0.0 config_n_global=299 ns_KE=22.56204691493236 pbc="T T F"
H        1.40307756       0.81006721       5.00000000        3       1.00000000       0.00000000       0.00000000       0.00000000
H        4.20923268       0.81006721       5.00000000        3       1.00000000       0.00000000       0.00000000       0.00000000
H        0.00000000       3.24026883       5.00000000        3       1.00000000       0.00000000       0.00000000       0.00000000
H        2.80615512       3.24026883       5.00000000        3       1.00000000       0.00000000       0.00000000       0.00000000
H        0.00000000       1.62013441       7.29121606        2       1.00000000       0.00000000       0.00000000       0.00000000
H        2.80615512       1.62013441       7.29121606        2       1.00000000       0.00000000       0.00000000       0.00000000
H        1.40307756       4.05033604       7.29121606        2       1.00000000       0.00000000       0.00000000       0.00000000
H        4.20923268       4.05033604       7.29121606        2       1.00000000       0.00000000       0.00000000       0.00000000
H        0.00000000       0.00000000       9.58243212        1       1.00000000       0.00000000       0.00000000       0.00000000
H        2.80615512       0.00000000       9.58243212        1       1.00000000       0.00000000       0.00000000       0.00000000
H        1.40307756       2.43020162       9.58243212        1       1.00000000       0.00000000       0.00000000       0.00000000
H        4.20923268       2.43020162       9.58243212        1       1.00000000       0.00000000       0.00000000       0.00000000
H        0.74205791       0.66958607       2.18388965        0       1.00000000       1.61421780      -0.42459440       2.64690383
H        4.92518084       2.32931901       2.51413854        0       1.00000000       4.10002368      -0.31657895      -0.86472335
H        0.69787362       0.88861035      12.34443685        0       1.00000000      -0.35526217       0.68500479       1.30101176
H        1.36791187       2.44471212       2.21518953        0       1.00000000      -1.27456351      -0.64734612       1.46930981
H        0.77293437       2.62126786      12.20601399        0       1.00000000       0.54636585       0.89851925       1.13706474
H        3.47072897       1.13161569       2.96997141        0       1.00000000       2.04831435      -1.61596877      -1.40627925
18
Lattice="5.612310241546866 0.0 0.0 0.0 4.860403243099165 0.0 0.0 0.0 14.582432123328676" Properties=species:S:1:pos:R:3:tags:I:1:masses:R:1:momenta:R:3 KEmax=23.26679191048647 iter=399 volume=397.78090899293073 ns_energy=23.84322644363725 last_walked_iter_clone=348 ns_P=0.0 config_n_global=399 ns_KE=19.864499165986242 pbc="T T F"
H        1.40307756       0.81006721       5.00000000        3       1.00000000       0.00000000       0.00000000       0.00000000
H        4.20923268       0.81006721       5.00000000        3       1.00000000       0.00000000       0.00000000       0.00000000
H        0.00000000       3.24026883       5.00000000        3       1.00000000       0.00000000       0.00000000       0.00000000
H        2.80615512       3.24026883       5.00000000        3       1.00000000       0.00000000       0.00000000       0.00000000
H        0.00000000       1.62013441       7.29121606        2       1.00000000       0.00000000       0.00000000       0.00000000
H        2.80615512       1.62013441       7.29121606        2       1.00000000       0.00000000       0.00000000       0.00000000
H        1.40307756       4.05033604       7.29121606        2       1.00000000       0.00000000       0.00000000       0.00000000
H        4.20923268       4.05033604       7.29121606        2       1.00000000       0.00000000       0.00000000       0.00000000
H        0.00000000       0.00000000       9.58243212        1       1.00000000       0.00000000       0.00000000       0.00000000
H        2.80615512       0.00000000       9.58243212        1       1.00000000       0.00000000       0.00000000       0.00000000
H        1.40307756       2.43020162       9.58243212        1       1.00000000       0.00000000       0.00000000       0.00000000
H        4.20923268       2.43020162       9.58243212        1       1.00000000       0.00000000       0.00000000       0.00000000
H        4.84312216       2.24057245       2.38809545        0       1.00000000       0.97243133       0.70730465       0.00070004
H        4.07591515       0.52889471       2.02327880        0       1.00000000      -3.35719074      -2.07574903      -1.05525518
H        2.79183733       2.74267837      12.18345723        0       1.00000000      -0.91639381      -0.80285483       1.84129085
H        2.07232828       1.31388775       2.79179268        0       1.00000000       1.41173274       2.92550346      -0.64299976
H        2.52826739       0.62211469      12.53914229        0       1.00000000      -1.45633853      -1.60986792       0.97921103
H        3.03269003       3.75423797       2.60463405        0       1.00000000      -0.09780371      -0.06524826       0.25510830
18
Lattice="5.612310241546866 0.0 0.0 0.0 4.860403243099165 0.0 0.0 0.0 14.582432123328676" Properties=species:S:1:pos:R:3:tags:I:1:masses:R:1:momenta:R:3 KEmax=23.26679191048647 iter=499 volume=397.78090899293073 ns_energy=16.63123186241889 last_walked_iter_clone=279 ns_P=0.0 config_n_global=499 ns_KE=22.35420940090699 pbc="T T F"
H        1.40307756       0.81006721       5.00000000        3       1.00000000       0.00000000       0.00000000       0.00000000
H        4.20923268       0.81006721       5.00000000        3       1.00000000       0.00000000       0.00000000       0.00000000
H        0.00000000       3.24026883       5.00000000        3       1.00000000       0.00000000       0.00000000       0.00000000
H        2.80615512       3.24026883       5.00000000        3       1.00000000       0.00000000       0.00000000       0.00000000
H        0.00000000       1.62013441       7.29121606        2       1.00000000       0.00000000       0.00000000       0.00000000
H        2.80615512       1.62013441       7.29121606        2       1.00000000       0.00000000       0.00000000       0.00000000
H        1.40307756       4.05033604       7.29121606        2       1.00000000       0.00000000       0.00000000       0.00000000
H        4.20923268       4.05033604       7.29121606        2       1.00000000       0.00000000       0.00000000       0.00000000
H        0.00000000       0.00000000       9.58243212        1       1.00000000       0.00000000       0.00000000       0.00000000
H        2.80615512       0.00000000       9.58243212        1       1.00000000       0.00000000       0.00000000       0.00000000
H        1.40307756       2.43020162       9.58243212        1       1.00000000       0.00000000       0.00000000       0.00000000
H        4.20923268       2.43020162       9.58243212        1       1.00000000       0.00000000       0.00000000       0.00000000
H        5.31398847       3.49514588       2.20821695        0       1.00000000       1.83320010       2.62370640      -0.62544025
H        4.14646955       0.80098355       2.75330004        0       1.00000000      -0.50429369      -0.33814943      -1.07498722
H        4.29012790       1.47959531      11.83392205        0       1.00000000       2.73463183      -2.43499058      -2.01067390
H        2.57492194       3.65177716       2.11159825        0       1.00000000      -2.30523495      -0.36506027       0.27834575
H        1.43404559       3.47669060      12.50223022        0       1.00000000      -1.23102050      -1.31360154      -0.73190343
H        1.61901844       0.48061978       2.74260676        0       1.00000000       1.24763362       1.91834158      -0.74847183
18
Lattice="5.612310241546866 0.0 0.0 0.0 4.860403243099165 0.0 0.0 0.0 14.582432123328676" Properties=species:S:1:pos:R:3:tags:I:1:masses:R:1:momenta:R:3 KEmax=23.26679191048647 iter=599 volume=397.78090899293073 ns_energy=14.065180234570075 last_walked_iter_clone=429 ns_P=0.0 config_n_global=599 ns_KE=22.105107320837703 pbc="T T F"
H        1.40307756       0.81006721       5.00000000        3       1.00000000       0.00000000       0.00000000       0.00000000
H        4.20923268       0.81006721       5.00000000        3       1.00000000       0.00000000       0.00000000       0.00000000
H        0.00000000       3.24026883       5.00000000        3       1.00000000       0.00000000       0.00000000       0.00000000
H        2.80615512       3.24026883       5.00000000        3       1.00000000       0.00000000       0.00000000       0.00000000
H        0.00000000       1.62013441       7.29121606        2       1.00000000       0.00000000       0.00000000       0.00000000
H        2.80615512       1.62013441       7.29121606        2       1.00000000       0.00000000       0.00000000       0.00000000
H        1.40307756       4.05033604       7.29121606        2       1.00000000       0.00000000       0.00000000       0.00000000
H        4.20923268       4.05033604       7.29121606        2       1.00000000       0.00000000       0.00000000       0.00000000
H        0.00000000       0.00000000       9.58243212        1       1.00000000       0.00000000       0.00000000       0.00000000
H        2.80615512       0.00000000       9.58243212        1       1.00000000       0.00000000       0.00000000       0.00000000
H        1.40307756       2.43020162       9.58243212        1       1.00000000       0.00000000       0.00000000       0.00000000
H        4.20923268       2.43020162       9.58243212        1       1.00000000       0.00000000       0.00000000       0.00000000
H        1.11944869       2.46500525       1.82585379        0       1.00000000       0.21463927      -1.60091800      -0.55273141
H        2.55125174       4.65249939       3.25147627        0       1.00000000      -0.92446690      -3.64764068      -2.70783920
H        4.24091919       0.80698078      11.61946533        0       1.00000000       1.03821474      -1.05495005       1.77684425
H        3.80489276       2.10874712       1.88990321        0       1.00000000      -0.68192198      -0.95411326      -0.56239316
H        1.82113089       1.10102088      12.23350579        0       1.00000000       0.96520915      -1.93999126       1.05750459
H        0.25633167       0.45844654       1.88922743        0       1.00000000       2.49517956      -0.59365643       0.60983524
18
Lattice="5.612310241546866 0.0 0.0 0.0 4.860403243099165 0.0 0.0 0.0 14.582432123328676" Properties=species:S:1:pos:R:3:tags:I:1:masses:R:1:momenta:R:3 KEmax=23.26679191048647 iter=699 volume=397.78090899293073 ns_energy=12.511561201034661 last_walked_iter_clone=651 ns_P=0.0 config_n_global=699 ns_KE=21.231050394283756 pbc="T T F"
H        1.40307756       0.81006721       5.00000000        3       1.00000000       0.00000000       0.00000000       0.00000000
H        4.20923268       0.81006721       5.00000000        3       1.00000000       0.00000000       0.00000000       0.00000000
H        0.00000000       3.24026883       5.00000000        3       1.00000000       0.00000000       0.00000000       0.00000000
H        2.80615512       3.24026883       5.00000000        3       1.00000000       0.00000000       0.00000000       0.00000000
H        0.00000000       1.62013441       7.29121606        2       1.00000000       0.00000000       0.00000000       0.00000000
H        2.80615512       1.62013441       7.29121606        2       1.00000000       0.00000000       0.00000000       0.00000000
H        1.40307756       4.05033604       7.29121606        2       1.00000000       0.00000000       0.00000000       0.00000000
H        4.20923268       4.05033604       7.29121606        2       1.00000000       0.00000000       0.00000000       0.00000000
H        0.00000000       0.00000000       9.58243212        1       1.00000000       0.00000000       0.00000000       0.00000000
H        2.80615512       0.00000000       9.58243212        1       1.00000000       0.00000000       0.00000000       0.00000000
H        1.40307756       2.43020162       9.58243212        1       1.00000000       0.00000000       0.00000000       0.00000000
H        4.20923268       2.43020162       9.58243212        1       1.00000000       0.00000000       0.00000000       0.00000000
H        4.28926979       3.77933487       0.08967352        0       1.00000000       2.11229401       0.85729965       1.44516982
H        0.09261725       1.58311629       0.12892456        0       1.00000000      -1.72028524       0.06286565       2.42867705
H        4.86374187       3.07999304      13.00198418        0       1.00000000      -1.74564826      -2.54561511       0.09886248
H        5.40062813       0.11638916       2.01513631        0       1.00000000       0.52038603       0.60469951      -2.93338771
H        0.26685425       0.94170196      13.93697411        0       1.00000000      -0.07277225       1.49756556       0.04586783
H        2.75070225       1.91789830       1.30990314        0       1.00000000      -1.35417143      -1.03076510       1.54603588
18
Lattice="5.612310241546866 0.0 0.0 0.0 4.860403243099165 0.0 0.0 0.0 14.582432123328676" Properties=species:S:1:pos:R:3:tags:I:1:masses:R:1:momenta:R:3 KEmax=23.26679191048647 iter=799 volume=397.78090899293073 ns_energy=11.253181855250793 last_walked_iter_clone=699 ns_P=0.0 config_n_global=799 ns_KE=13.434571882710756 pbc="T T F"
H        1.40307756       0.81006721       5.00000000        3       1.00000000       0.00000000       0.00000000       0.00000000
H        4.20923268       0.81006721       5.00000000        3       1.00000000       0.00000000       0.00000000       0.00000000
H        0.00000000       3.24026883       5.00000000        3       1.00000000       0.00000000       0.00000000       0.00000000
H        2.80615512       3.24026883       5.00000000        3       1.00000000       0.00000000       0.00000000       0.00000000
H        0.00000000       1.62013441       7.29121606        2       1.00000000       0.00000000       0.00000000       0.00000000
H        2.80615512       1.62013441       7.29121606        2       1.00000000       0.00000000       0.00000000       0.00000000
H        1.40307756       4.05033604       7.29121606        2       1.00000000       0.00000000       0.00000000       0.00000000
H        4.20923268       4.05033604       7.29121606        2       1.00000000       0.00000000       0.00000000       0.00000000
H        0.00000000       0.00000000       9.58243212        1       1.00000000       0.00000000       0.00000000       0.00000000
H        2.80615512       0.00000000       9.58243212        1       1.00000000       0.00000000       0.00000000       0.00000000
H        1.40307756       2.43020162       9.58243212        1       1.00000000       0.00000000       0.00000000       0.00000000
H        4.20923268       2.43020162       9.58243212        1       1.00000000       0.00000000       0.00000000       0.00000000
H        3.97287480       4.11675656       2.72113650        0       1.00000000       1.82085611      -0.39171210      -1.10051531
H        3.57114642       3.32977581       0.52678007        0       1.00000000      -0.14975055       2.03166164       0.16737565
H        1.80129033       0.81839914      14.01507008        0       1.00000000       0.09019954      -0.46264648      -2.12377664
H        0.16289782       3.80478164       1.47253607        0       1.00000000      -1.27914346      -1.29086033      -0.45365947
H        5.25055265       4.09962069      13.07072847        0       1.00000000       0.83552760       1.01576024      -2.57886287
H        2.05119379       4.37533763       3.07716221        0       1.00000000      -0.64614046      -0.90482794       0.39167000
18
Lattice="5.612310241546866 0.0 0.0 0.0 4.860403243099165 0.0 0.0 0.0 14.582432123328676" Properties=species:S:1:pos:R:3:tags:I:1:masses:R:1:momenta:R:3 KEmax=23.26679191048647 iter=899 volume=397.78090899293073 ns_energy=10.061131438628935 last_walked_iter_clone=752 ns_P=0.0 config_n_global=899 ns_KE=16.57205440851677 pbc="T T F"
H        1.40307756       0.81006721       5.00000000        3       1.00000000       0.00000000       0.00000000       0.00000000
H        4.20923268       0.81006721       5.00000000        3       1.00000000       0.00000000       0.00000000       0.00000000
H        0.00000000       3.24026883       5.00000000        3       1.00000000       0.00000000       0.00000000       0.00000000
H        2.80615512       3.24026883       5.00000000        3       1.00000000       0.00000000       0.00000000       0.00000000
H        0.00000000       1.62013441       7.29121606        2       1.00000000       0.00000000       0.00000000       0.00000000
H        2.80615512       1.62013441       7.29121606        2       1.00000000       0.00000000       0.00000000       0.00000000
H        1.40307756       4.05033604       7.29121606        2       1.00000000       0.00000000       0.00000000       0.00000000
H        4.20923268       4.05033604       7.29121606        2       1.00000000       0.00000000       0.00000000       0.00000000
H        0.00000000       0.00000000       9.58243212        1       1.00000000       0.00000000       0.00000000       0.00000000
H        2.80615512       0.00000000       9.58243212        1       1.00000000       0.00000000       0.00000000       0.00000000
H        1.40307756       2.43020162       9.58243212        1       1.00000000       0.00000000       0.00000000       0.00000000
H        4.20923268       2.43020162       9.58243212        1       1.00000000       0.00000000       0.00000000       0.00000000
H        0.07542382       1.20478991       2.88297009        0       1.00000000       0.40965399      -0.81907920      -0.03068549
H        4.39441967       2.97432955       2.11522607        0       1.00000000      -0.19035848      -3.31112547      -1.18849695
H        5.01455052      -0.01576807      11.94999680        0       1.00000000      -1.85634594      -0.30443761       1.55900257
H        0.42906401       2.80952387       0.17101291        0       1.00000000      -0.29057593       2.26718761       1.22801964
H        4.00315926       4.20683958      13.67380559        0       1.00000000      -0.33651439      -1.57036459       0.03532407
H        3.23708137       0.46930904       0.40607717        0       1.00000000      -1.62866015       0.45978296       1.32131759
18
Lattice="5.612310241546866 0.0 0.0 0.0 4.860403243099165 0.0 0.0 0.0 14.582432123328676" Properties=species:S:1:pos:R:3:tags:I:1:masses:R:1:momenta:R:3 KEmax=23.26679191048647 iter=999 volume=397.78090899293073 ns_energy=8.883990149451899 last_walked_iter_clone=473 ns_P=0.0 config_n_global=999 ns_KE=18.19102567931875 pbc="T T F"
H        1.40307756       0.81006721       5.00000000        3       1.00000000       0.00000000       0.00000000       0.00000000
H        4.20923268       0.81006721       5.00000000        3       1.00000000       0.00000000       0.00000000       0.00000000
H        0.00000000       3.24026883       5.00000000        3       1.00000000       0.00000000       0.00000000       0.00000000
H        2.80615512       3.24026883       5.00000000        3       1.00000000       0.00000000       0.00000000       0.00000000
H        0.00000000       1.62013441       7.29121606        2       1.00000000       0.00000000       0.00000000       0.00000000
H        2.80615512       1.62013441       7.29121606        2       1.00000000       0.00000000       0.00000000       0.00000000
H        1.40307756       4.05033604       7.29121606        2       1.00000000       0.00000000       0.00000000       0.00000000
H        4.20923268       4.05033604       7.29121606        2       1.00000000       0.00000000       0.00000000       0.00000000
H        0.00000000       0.00000000       9.58243212        1       1.00000000       0.00000000       0.00000000       0.00000000
H        2.80615512       0.00000000       9.58243212        1       1.00000000       0.00000000       0.00000000       0.00000000
H        1.40307756       2.43020162       9.58243212        1       1.00000000       0.00000000       0.00000000       0.00000000
H        4.20923268       2.43020162       9.58243212        1       1.00000000       0.00000000       0.00000000       0.00000000
H        4.97261149       3.07214096       2.53132892        0       1.00000000      -0.03527741       1.70885832      -1.78081049
H        4.80771579       0.28668566       0.38935135        0       1.00000000       1.22004354      -0.55060838      -2.85302379
H        2.68336402       2.83765932      11.99531556        0       1.00000000       0.20809330      -0.49274892      -1.34860422
H        2.66430314       1.81610147       2.30240272        0       1.00000000       1.50449944       0.26201184       0.20330129
H        1.52619619       0.26947888      13.28247175        0       1.00000000      -1.91578833      -1.69263690      -0.17944303
H        2.75562483       4.11746371       2.73894592        0       1.00000000      -1.53396088       2.62980940      -0.20776867
18
Lattice="5.612310241546866 0.0 0.0 0.0 4.860403243099165 0.0 0.0 0.0 14.582432123328676" Properties=species:S:1:pos:R:3:tags:I:1:masses:R:1:momenta:R:3 KEmax=23.26679191048647 iter=1099 volume=397.78090899293073 ns_energy=7.852081744422815 last_walked_iter_clone=1009 ns_P=0.0 config_n_global=1099 ns_KE=15.048996850789335 pbc="T T F"
H        1.40307756       0.81006721       5.00000000        3       1.00000000       0.00000000       0.00000000       0.00000000
H        4.20923268       0.81006721       5.00000000        3       1.00000000       0.00000000       0.00000000       0.00000000
H        0.00000000       3.24026883       5.00000000        3       1.00000000       0.00000000       0.00000000       0.00000000
H        2.80615512       3.24026883       5.00000000        3       1.00000000       0.00000000       0.00000000       0.00000000
H        0.00000000       1.62013441       7.29121606        2       1.00000000       0.00000000       0.00000000       0.00000000
H        2.80615512       1.62013441       7.29121606        2       1.00000000       0.00000000       0.00000000       0.00000000
H        1.40307756       4.05033604       7.29121606        2       1.00000000       0.00000000       0.00000000       0.00000000
H        4.20923268       4.05033604       7.29121606        2       1.00000000       0.00000000       0.00000000       0.00000000
H        0.00000000       0.00000000       9.58243212        1       1.00000000       0.00000000       0.00000000       0.00000000
H        2.80615512       0.00000000       9.58243212        1       1.00000000       0.00000000       0.00000000       0.00000000
H        1.40307756       2.43020162       9.58243212        1       1.00000000       0.00000000       0.00000000       0.00000000
H        4.20923268       2.43020162       9.58243212        1       1.00000000       0.00000000       0.00000000       0.00000000
H        5.36945848       1.05161592       3.15493131        0       1.00000000      -1.13489392      -2.23525004       2.98422688
H        1.26561762       2.89690719       2.56218013        0       1.00000000      -1.27049306      -1.05491944       0.95085821
H        1.77708425       1.13735827      11.86420699        0       1.00000000      -0.26645597       0.13002604       0.06425665
H        2.95807408       0.09515027       0.35199846        0       1.00000000      -0.53229566      -0.02076536      -0.63719260
H        1.50886921       1.43324489      14.10621922        0       1.00000000       0.26618781      -0.93560208      -1.95260089
H        3.33974123       3.81296503       2.72247041        0       1.00000000       1.32155016      -1.99498890      -0.09882293
18
Lattice="5.612310241546866 0.0 0.0 0.0 4.860403243099165 0.0 0.0 0.0 14.582432123328676" Properties=species:S:1:pos:R:3:tags:I:1:masses:R:1:momenta:R:3 KEmax=23.26679191048647 iter=1199 volume=397.78090899293073 ns_energy=6.869499611896892 last_walked_iter_clone=1116 ns_P=0.0 config_n_global=1199 ns_KE=8.406409587400528 pbc="T T F"