18
Lattice="5.612310241546866 0.0 0.0 0.0 4.860403243099165 0.0 0.0 0.0 44.58243212332868" Properties=species:S:1:pos:R:3:tags:I:1:masses:R:1:momenta:R:3:forces:R:3 KEmax=23.26679191048647 iter=114141 volume=1216.1236359717223 ns_energy=-11.636651374034045 last_walked_iter_clone=112233 energy=-11.636651374031363 stress="0.02258062978866011 4.2094379976917406e-09 -9.901999373402047e-09 4.2094379976917406e-09 0.022694989286715553 -1.5719311092784495e-08 -9.901999373402047e-09 -1.5719311092784495e-08 0.012370057547050315" pbc="T T F"
H        1.40307756       0.81006721      20.00000000        3       1.00000000       0.00000000       0.00000000       0.00000000       0.00000000       0.00000000       0.00000000
H        4.20923268       0.81006721      20.00000000        3       1.00000000       0.00000000       0.00000000       0.00000000       0.00000000       0.00000000       0.00000000
H        0.00000000       3.24026883      20.00000000        3       1.00000000       0.00000000       0.00000000       0.00000000       0.00000000       0.00000000       0.00000000
H        2.80615512       3.24026883      20.00000000        3       1.00000000       0.00000000       0.00000000       0.00000000       0.00000000       0.00000000       0.00000000
H        0.00000000       1.62013441      22.29121606        2       1.00000000       0.00000000       0.00000000       0.00000000       0.00000000       0.00000000       0.00000000
H        2.80615512       1.62013441      22.29121606        2       1.00000000       0.00000000       0.00000000       0.00000000       0.00000000       0.00000000       0.00000000
H        1.40307756       4.05033604      22.29121606        2       1.00000000       0.00000000       0.00000000       0.00000000       0.00000000       0.00000000       0.00000000
H        4.20923268       4.05033604      22.29121606        2       1.00000000       0.00000000       0.00000000       0.00000000       0.00000000       0.00000000       0.00000000
H        0.00000000       0.00000000      24.58243212        1       1.00000000       0.00000000       0.00000000       0.00000000       0.00000000       0.00000000       0.00000000
H        2.80615512       0.00000000      24.58243212        1       1.00000000       0.00000000       0.00000000       0.00000000       0.00000000       0.00000000       0.00000000
H        1.40307756       2.43020162      24.58243212        1       1.00000000       0.00000000       0.00000000       0.00000000       0.00000000       0.00000000       0.00000000
H        4.20923268       2.43020162      24.58243212        1       1.00000000       0.00000000       0.00000000       0.00000000       0.00000000       0.00000000       0.00000000
H        2.80615469       0.00000035      17.77172681        0       1.00000000      -0.00000033       0.00000071       0.00000084       0.00000091       0.00000329       0.00000356
H       -0.00000056       0.00000067      17.77172708        0       1.00000000      -0.00000052      -0.00000017      -0.00000030      -0.00000010      -0.00000119      -0.00000081
H        4.21916387       4.05018898      26.81113088        0       1.00000000      -0.00000007      -0.00000042      -0.00000028      -0.00000026      -0.00000151      -0.00000175
H        4.20923243       2.43020241      17.77172651        0       1.00000000       0.00000042       0.00000022       0.00000014       0.00000097       0.00000050       0.00000149
H        2.79622420       1.61998674      26.81113053        0       1.00000000      -0.00000025       0.00000057       0.00000263       0.00000024       0.00000238      -0.00000041
H        1.40307666       2.43020219      17.77172697        0       1.00000000      -0.00000030      -0.00000078       0.00000008      -0.00000290      -0.00000305       0.00000186
18
Lattice="5.612310241546866 0.0 0.0 0.0 4.860403243099165 0.0 0.0 0.0 44.58243212332868" Properties=species:S:1:pos:R:3:tags:I:1:masses:R:1:momenta:R:3:forces:R:3 KEmax=23.26679191048647 iter=114141 volume=1216.1236359717223 ns_energy=-11.636651374034292 last_walked_iter_clone=113621 energy=-11.636651374031363 stress="0.02258062978866011 4.2094379976917406e-09 -9.901999373402047e-09 4.2094379976917406e-09 0.022694989286715553 -1.5719311092784495e-08 -9.901999373402047e-09 -1.5719311092784495e-08 0.012370057547050315" pbc="T T F"
H        1.40307756       0.81006721      20.00000000        3       1.00000000       0.00000000       0.00000000       0.00000000       0.00000000       0.00000000       0.00000000
H        4.20923268       0.81006721      20.00000000        3       1.00000000       0.00000000       0.00000000       0.00000000       0.00000000       0.00000000       0.00000000
H        0.00000000       3.24026883      20.00000000        3       1.00000000       0.00000000       0.00000000       0.00000000       0.00000000       0.00000000       0.00000000
H        2.80615512       3.24026883      20.00000000        3       1.00000000       0.00000000       0.00000000       0.00000000       0.00000000       0.00000000       0.00000000
H        0.00000000       1.62013441      22.29121606        2       1.00000000       0.00000000       0.00000000       0.00000000       0.00000000       0.00000000       0.00000000
H        2.80615512       1.62013441      22.29121606        2       1.00000000       0.00000000       0.00000000       0.00000000       0.00000000       0.00000000       0.00000000
H        1.40307756       4.05033604      22.29121606        2       1.00000000       0.00000000       0.00000000       0.00000000       0.00000000       0.00000000       0.00000000
H        4.20923268       4.05033604      22.29121606        2       1.00000000       0.00000000       0.00000000       0.00000000       0.00000000       0.00000000       0.00000000
H        0.00000000       0.00000000      24.58243212        1       1.00000000       0.00000000       0.00000000       0.00000000       0.00000000       0.00000000       0.00000000
H        2.80615512       0.00000000      24.58243212        1       1.00000000       0.00000000       0.00000000       0.00000000       0.00000000       0.00000000       0.00000000
H        1.40307756       2.43020162      24.58243212        1       1.00000000       0.00000000       0.00000000       0.00000000       0.00000000       0.00000000       0.00000000
H        4.20923268       2.43020162      24.58243212        1       1.00000000       0.00000000       0.00000000       0.00000000       0.00000000       0.00000000       0.00000000
H        2.80615543      -0.00000097      17.77172720        0       1.00000000      -0.00000035       0.00000057      -0.00000042       0.00000091       0.00000329       0.00000356
H        5.61231049      -0.00000137      17.77172722        0       1.00000000      -0.00000032       0.00000046       0.00000179      -0.00000010      -0.00000119      -0.00000081
H        4.21916392       4.05018914      26.81113028        0       1.00000000       0.00000032      -0.00000024       0.00000070      -0.00000026      -0.00000151      -0.00000175
H        4.20923281       2.43020056      17.77172723        0       1.00000000      -0.00000014      -0.00000000      -0.00000008       0.00000097       0.00000050       0.00000149
H        2.79622387       1.61998764      26.81113101        0       1.00000000       0.00000016       0.00000020       0.00000109       0.00000024       0.00000238      -0.00000041
H        1.40307776       2.43020064      17.77172779        0       1.00000000       0.00000076      -0.00000032       0.00000132      -0.00000290      -0.00000305       0.00000186
18
Lattice="5.612310241546866 0.0 0.0 0.0 4.860403243099165 0.0 0.0 0.0 44.58243212332868" Properties=species:S:1:pos:R:3:tags:I:1:masses:R:1:momenta:R:3:forces:R:3 KEmax=23.26679191048647 iter=114141 volume=1216.1236359717223 ns_energy=-11.636651374034148 last_walked_iter_clone=112259 energy=-11.636651374031363 stress="0.02258062978866011 4.2094379976917406e-09 -9.901999373402047e-09 4.2094379976917406e-09 0.022694989286715553 -1.5719311092784495e-08 -9.901999373402047e-09 -1.5719311092784495e-08 0.012370057547050315" pbc="T T F"
H        1.40307756       0.81006721      20.00000000        3       1.00000000       0.00000000       0.00000000       0.00000000       0.00000000       0.00000000       0.00000000
H        4.20923268       0.81006721      20.00000000        3       1.00000000       0.00000000       0.00000000       0.00000000       0.00000000       0.00000000       0.00000000
H        0.00000000       3.24026883      20.00000000        3       1.00000000       0.00000000       0.00000000       0.00000000       0.00000000       0.00000000       0.00000000
H        2.80615512       3.24026883      20.00000000        3       1.00000000       0.00000000       0.00000000       0.00000000       0.00000000       0.00000000       0.00000000
H        0.00000000       1.62013441      22.29121606        2       1.00000000       0.00000000       0.00000000       0.00000000       0.00000000       0.00000000       0.00000000
H        2.80615512       1.62013441      22.29121606        2       1.00000000       0.00000000       0.00000000       0.00000000       0.00000000       0.00000000       0.00000000
H        1.40307756       4.05033604      22.29121606        2       1.00000000       0.00000000       0.00000000       0.00000000       0.00000000       0.00000000       0.00000000
H        4.20923268       4.05033604      22.29121606        2       1.00000000       0.00000000       0.00000000       0.00000000       0.00000000       0.00000000       0.00000000
H        0.00000000       0.00000000      24.58243212        1       1.00000000       0.00000000       0.00000000       0.00000000       0.00000000       0.00000000       0.00000000
H        2.80615512       0.00000000      24.58243212        1       1.00000000       0.00000000       0.00000000       0.00000000       0.00000000       0.00000000       0.00000000
H        1.40307756       2.43020162      24.58243212        1       1.00000000       0.00000000       0.00000000       0.00000000       0.00000000       0.00000000       0.00000000
H        4.20923268       2.43020162      24.58243212        1       1.00000000       0.00000000       0.00000000       0.00000000       0.00000000       0.00000000       0.00000000
H        2.80615541       4.86040319      17.77172726        0       1.00000000       0.00000047       0.00000179      -0.00000040       0.00000091       0.00000329       0.00000356
H        5.61231078      -0.00000009      17.77172710        0       1.00000000       0.00000029       0.00000011       0.00000127      -0.00000010      -0.00000119      -0.00000081
H        4.21916334       4.05018873      26.81113068        0       1.00000000      -0.00000049      -0.00000040       0.00000010      -0.00000026      -0.00000151      -0.00000175
H        4.20923291       2.43020189      17.77172741        0       1.00000000      -0.00000137      -0.00000073       0.00000098       0.00000097       0.00000050       0.00000149
H        2.79622403       1.61998701      26.81113011        0       1.00000000       0.00000020      -0.00000112       0.00000061       0.00000024       0.00000238      -0.00000041
H        1.40307789       2.43020187      17.77172699        0       1.00000000      -0.00000076       0.00000089       0.00000071      -0.00000290      -0.00000305       0.00000186
18
Lattice="5.612310241546866 0.0 0.0 0.0 4.860403243099165 0.0 0.0 0.0 44.58243212332868" Properties=species:S:1:pos:R:3:tags:I:1:masses:R:1:momenta:R:3:forces:R:3 KEmax=23.26679191048647 iter=114141 volume=1216.1236359717223 ns_energy=-11.636651374034185 last_walked_iter_clone=114116 energy=-11.636651374031363 stress="0.02258062978866011 4.2094379976917406e-09 -9.901999373402047e-09 4.2094379976917406e-09 0.022694989286715553 -1.5719311092784495e-08 -9.901999373402047e-09 -1.5719311092784495e-08 0.012370057547050315" pbc="T T F"
H        1.40307756       0.81006721      20.00000000        3       1.00000000       0.00000000       0.00000000       0.00000000       0.00000000       0.00000000       0.00000000
H        4.20923268       0.81006721      20.00000000        3       1.00000000       0.00000000       0.00000000       0.00000000       0.00000000       0.00000000       0.00000000
H        0.00000000       3.24026883      20.00000000        3       1.00000000       0.00000000       0.00000000       0.00000000       0.00000000       0.00000000       0.00000000
H        2.80615512       3.24026883      20.00000000        3       1.00000000       0.00000000       0.00000000       0.00000000       0.00000000       0.00000000       0.00000000
H        0.00000000       1.62013441      22.29121606        2       1.00000000       0.00000000       0.00000000       0.00000000       0.00000000       0.00000000       0.00000000
H        2.80615512       1.62013441      22.29121606        2       1.00000000       0.00000000       0.00000000       0.00000000       0.00000000       0.00000000       0.00000000
H        1.40307756       4.05033604      22.29121606        2       1.00000000       0.00000000       0.00000000       0.00000000       0.00000000       0.00000000       0.00000000
H        4.20923268       4.05033604      22.29121606        2       1.00000000       0.00000000       0.00000000       0.00000000       0.00000000       0.00000000       0.00000000
H        0.00000000       0.00000000      24.58243212        1       1.00000000       0.00000000       0.00000000       0.00000000       0.00000000       0.00000000       0.00000000
H        2.80615512       0.00000000      24.58243212        1       1.00000000       0.00000000       0.00000000       0.00000000       0.00000000       0.00000000       0.00000000
H        1.40307756       2.43020162      24.58243212        1       1.00000000       0.00000000       0.00000000       0.00000000       0.00000000       0.00000000       0.00000000
H        4.20923268       2.43020162      24.58243212        1       1.00000000       0.00000000       0.00000000       0.00000000       0.00000000       0.00000000       0.00000000
H        2.80615457       4.86040335      17.77172688        0       1.00000000      -0.00000021      -0.00000097      -0.00000072       0.00000091       0.00000329       0.00000356
H       -0.00000038       4.86040383      17.77172689        0       1.00000000       0.00000104       0.00000053       0.00000093      -0.00000010      -0.00000119      -0.00000081
H        4.21916314       4.05018862      26.81113039        0       1.00000000      -0.00000062      -0.00000124      -0.00000027      -0.00000026      -0.00000151      -0.00000175
H        4.20923174       2.43020195      17.77172673        0       1.00000000      -0.00000080       0.00000027      -0.00000002       0.00000097       0.00000050       0.00000149
H        2.79622383       1.61998690      26.81113032        0       1.00000000      -0.00000036       0.00000011       0.00000095       0.00000024       0.00000238      -0.00000041
H        1.40307699       2.43020280      17.77172654        0       1.00000000      -0.00000033      -0.00000031      -0.00000057      -0.00000290      -0.00000305       0.00000186
18
Lattice="5.612310241546866 0.0 0.0 0.0 4.860403243099165 0.0 0.0 0.0 44.58243212332868" Properties=species:S:1:pos:R:3:tags:I:1:masses:R:1:momenta:R:3:forces:R:3 KEmax=23.26679191048647 iter=114141 volume=1216.1236359717223 ns_energy=-11.63665137403399 last_walked_iter_clone=113611 energy=-11.636651374031363 stress="0.02258062978866011 4.2094379976917406e-09 -9.901999373402047e-09 4.2094379976917406e-09 0.022694989286715553 -1.5719311092784495e-08 -9.901999373402047e-09 -1.5719311092784495e-08 0.012370057547050315" pbc="T T F"
H        1.40307756       0.81006721      20.00000000        3       1.00000000       0.00000000       0.00000000       0.00000000       0.00000000       0.00000000       0.00000000
H        4.20923268       0.81006721      20.00000000        3       1.00000000       0.00000000       0.00000000       0.00000000       0.00000000       0.00000000       0.00000000
H        0.00000000       3.24026883      20.00000000        3       1.00000000       0.00000000       0.00000000       0.00000000       0.00000000       0.00000000       0.00000000
H        2.80615512       3.24026883      20.00000000        3       1.00000000       0.00000000       0.00000000       0.00000000       0.00000000       0.00000000       0.00000000
H        0.00000000       1.62013441      22.29121606        2       1.00000000       0.00000000       0.00000000       0.00000000       0.00000000       0.00000000       0.00000000
H        2.80615512       1.62013441      22.29121606        2       1.00000000       0.00000000       0.00000000       0.00000000       0.00000000       0.00000000       0.00000000
H        1.40307756       4.05033604      22.29121606        2       1.00000000       0.00000000       0.00000000       0.00000000       0.00000000       0.00000000       0.00000000
H        4.20923268       4.05033604      22.29121606        2       1.00000000       0.00000000       0.00000000       0.00000000       0.00000000       0.00000000       0.00000000
H        0.00000000       0.00000000      24.58243212        1       1.00000000       0.00000000       0.00000000       0.00000000       0.00000000       0.00000000       0.00000000
H        2.80615512       0.00000000      24.58243212        1       1.00000000       0.00000000       0.00000000       0.00000000       0.00000000       0.00000000       0.00000000
H        1.40307756       2.43020162      24.58243212        1       1.00000000       0.00000000       0.00000000       0.00000000       0.00000000       0.00000000       0.00000000
H        4.20923268       2.43020162      24.58243212        1       1.00000000       0.00000000       0.00000000       0.00000000       0.00000000       0.00000000       0.00000000
H        2.80615472       0.00000027      17.77172679        0       1.00000000      -0.00000019       0.00000101       0.00000031       0.00000091       0.00000329       0.00000356
H        5.61230966       0.00000089      17.77172706        0       1.00000000      -0.00000033       0.00000141      -0.00000012      -0.00000010      -0.00000119      -0.00000081
H        4.21916398       4.05018889      26.81113093        0       1.00000000      -0.00000064      -0.00000064       0.00000065      -0.00000026      -0.00000151      -0.00000175
H        4.20923230       2.43020221      17.77172655        0       1.00000000       0.00000135       0.00000041      -0.00000066       0.00000097       0.00000050       0.00000149
H        2.79622407       1.61998690      26.81113045        0       1.00000000       0.00000016       0.00000119       0.00000107       0.00000024       0.00000238      -0.00000041
H        1.40307683       2.43020234      17.77172697        0       1.00000000       0.00000114      -0.00000070       0.00000008      -0.00000290      -0.00000305       0.00000186
18
Lattice="5.612310241546866 0.0 0.0 0.0 4.860403243099165 0.0 0.0 0.0 44.58243212332868" Properties=species:S:1:pos:R:3:tags:I:1:masses:R:1:momenta:R:3:forces:R:3 KEmax=23.26679191048647 iter=114141 volume=1216.1236359717223 ns_energy=-11.6366513740341 last_walked_iter_clone=113749 energy=-11.636651374031363 stress="0.02258062978866011 4.2094379976917406e-09 -9.901999373402047e-09 4.2094379976917406e-09 0.022694989286715553 -1.5719311092784495e-08 -9.901999373402047e-09 -1.5719311092784495e-08 0.012370057547050315" pbc="T T F"
H        1.40307756       0.81006721      20.00000000        3       1.00000000       0.00000000       0.00000000       0.00000000       0.00000000       0.00000000       0.00000000
H        4.20923268       0.81006721      20.00000000        3       1.00000000       0.00000000       0.00000000       0.00000000       0.00000000       0.00000000       0.00000000
H        0.00000000       3.24026883      20.00000000        3       1.00000000       0.00000000       0.00000000       0.00000000       0.00000000       0.00000000       0.00000000
H        2.80615512       3.24026883      20.00000000        3       1.00000000       0.00000000       0.00000000       0.00000000       0.00000000       0.00000000       0.00000000
H        0.00000000       1.62013441      22.29121606        2       1.00000000       0.00000000       0.00000000       0.00000000       0.00000000       0.00000000       0.00000000
H        2.80615512       1.62013441      22.29121606        2       1.00000000       0.00000000       0.00000000       0.00000000       0.00000000       0.00000000       0.00000000
H        1.40307756       4.05033604      22.29121606        2       1.00000000       0.00000000       0.00000000       0.00000000       0.00000000       0.00000000       0.00000000
H        4.20923268       4.05033604      22.29121606        2       1.00000000       0.00000000       0.00000000       0.00000000       0.00000000       0.00000000       0.00000000
H        0.00000000       0.00000000      24.58243212        1       1.00000000       0.00000000       0.00000000       0.00000000       0.00000000       0.00000000       0.00000000
H        2.80615512       0.00000000      24.58243212        1       1.00000000       0.00000000       0.00000000       0.00000000       0.00000000       0.00000000       0.00000000
H        1.40307756       2.43020162      24.58243212        1       1.00000000       0.00000000       0.00000000       0.00000000       0.00000000       0.00000000       0.00000000
H        4.20923268       2.43020162      24.58243212        1       1.00000000       0.00000000       0.00000000       0.00000000       0.00000000       0.00000000       0.00000000
H        2.80615505       4.86040411      17.77172724        0       1.00000000       0.00000014       0.00000109       0.00000037       0.00000091       0.00000329       0.00000356
H        5.61231046       4.86040429      17.77172765        0       1.00000000      -0.00000081       0.00000069      -0.00000129      -0.00000010      -0.00000119      -0.00000081
H        4.21916406       4.05018914      26.81113071        0       1.00000000       0.00000026       0.00000003       0.00000014      -0.00000026      -0.00000151      -0.00000175
H        4.20923241       2.43020276      17.77172721        0       1.00000000       0.00000037      -0.00000042      -0.00000071       0.00000097       0.00000050       0.00000149
H        2.79622531       1.61998781      26.81113033        0       1.00000000      -0.00000032      -0.00000065      -0.00000072       0.00000024       0.00000238      -0.00000041
H        1.40307689       2.43020267      17.77172724        0       1.00000000       0.00000023       0.00000085      -0.00000112      -0.00000290      -0.00000305       0.00000186
18
Lattice="5.612310241546866 0.0 0.0 0.0 4.860403243099165 0.0 0.0 0.0 44.58243212332868" Properties=species:S:1:pos:R:3:tags:I:1:masses:R:1:momenta:R:3:forces:R:3 KEmax=23.26679191048647 iter=114141 volume=1216.1236359717223 ns_energy=-11.636651374034209 last_walked_iter_clone=112771 energy=-11.636651374031363 stress="0.02258062978866011 4.2094379976917406e-09 -9.901999373402047e-09 4.2094379976917406e-09 0.022694989286715553 -1.5719311092784495e-08 -9.901999373402047e-09 -1.5719311092784495e-08 0.012370057547050315" pbc="T T F"
H        1.40307756       0.81006721      20.00000000        3       1.00000000       0.00000000       0.00000000       0.00000000       0.00000000       0.00000000       0.00000000
H        4.20923268       0.81006721      20.00000000        3       1.00000000       0.00000000       0.00000000       0.00000000       0.00000000       0.00000000       0.00000000
H        0.00000000       3.24026883      20.00000000        3       1.00000000       0.00000000       0.00000000       0.00000000       0.00000000       0.00000000       0.00000000
H        2.80615512       3.24026883      20.00000000        3       1.00000000       0.00000000       0.00000000       0.00000000       0.00000000       0.00000000       0.00000000
H        0.00000000       1.62013441      22.29121606        2       1.00000000       0.00000000       0.00000000       0.00000000       0.00000000       0.00000000       0.00000000
H        2.80615512       1.62013441      22.29121606        2       1.00000000       0.00000000       0.00000000       0.00000000       0.00000000       0.00000000       0.00000000
H        1.40307756       4.05033604      22.29121606        2       1.00000000       0.00000000       0.00000000       0.00000000       0.00000000       0.00000000       0.00000000
H        4.20923268       4.05033604      22.29121606        2       1.00000000       0.00000000       0.00000000       0.00000000       0.00000000       0.00000000       0.00000000
H        0.00000000       0.00000000      24.58243212        1       1.00000000       0.00000000       0.00000000       0.00000000       0.00000000       0.00000000       0.00000000
H        2.80615512       0.00000000      24.58243212        1       1.00000000       0.00000000       0.00000000       0.00000000       0.00000000       0.00000000       0.00000000
H        1.40307756       2.43020162      24.58243212        1       1.00000000       0.00000000       0.00000000       0.00000000       0.00000000       0.00000000       0.00000000
H        4.20923268       2.43020162      24.58243212        1       1.00000000       0.00000000       0.00000000       0.00000000       0.00000000       0.00000000       0.00000000
H        2.80615369       4.86040378      17.77172669        0       1.00000000      -0.00000014       0.00000129       0.00000020       0.00000091       0.00000329       0.00000356
H       -0.00000146       4.86040389      17.77172713        0       1.00000000       0.00000015       0.00000015      -0.00000058      -0.00000010      -0.00000119      -0.00000081
H        4.21916304       4.05019016      26.81113045        0       1.00000000       0.00000021      -0.00000041      -0.00000143      -0.00000026      -0.00000151      -0.00000175
H        4.20923135       2.43020224      17.77172705        0       1.00000000       0.00000021       0.00000033       0.00000082       0.00000097       0.00000050       0.00000149
H        2.79622369       1.61998846      26.81113079        0       1.00000000       0.00000012       0.00000030       0.00000014       0.00000024       0.00000238      -0.00000041
H        1.40307665       2.43020210      17.77172674        0       1.00000000       0.00000139       0.00000069      -0.00000008      -0.00000290      -0.00000305       0.00000186
18
Lattice="5.612310241546866 0.0 0.0 0.0 4.860403243099165 0.0 0.0 0.0 44.58243212332868" Properties=species:S:1:pos:R:3:tags:I:1:masses:R:1:momenta:R:3:forces:R:3 KEmax=23.26679191048647 iter=114141 volume=1216.1236359717223 ns_energy=-11.63665137403403 last_walked_iter_clone=113746 energy=-11.636651374031363 stress="0.02258062978866011 4.2094379976917406e-09 -9.901999373402047e-09 4.2094379976917406e-09 0.022694989286715553 -1.5719311092784495e-08 -9.901999373402047e-09 -1.5719311092784495e-08 0.012370057547050315" pbc="T T F"
H        1.40307756       0.81006721      20.00000000        3       1.00000000       0.00000000       0.00000000       0.00000000       0.00000000       0.00000000       0.00000000
H        4.20923268       0.81006721      20.00000000        3       1.00000000       0.00000000       0.00000000       0.00000000       0.00000000       0.00000000       0.00000000
H        0.00000000       3.24026883      20.00000000        3       1.00000000       0.00000000       0.00000000       0.00000000       0.00000000       0.00000000       0.00000000
H        2.80615512       3.24026883      20.00000000        3       1.00000000       0.00000000       0.00000000       0.00000000       0.00000000       0.00000000       0.00000000
H        0.00000000       1.62013441      22.29121606        2       1.00000000       0.00000000       0.00000000       0.00000000       0.00000000       0.00000000       0.00000000
H        2.80615512       1.62013441      22.29121606        2       1.00000000       0.00000000       0.00000000       0.00000000       0.00000000       0.00000000       0.00000000
H        1.40307756       4.05033604      22.29121606        2       1.00000000       0.00000000       0.00000000       0.00000000       0.00000000       0.00000000       0.00000000
H        4.20923268       4.05033604      22.29121606        2       1.00000000       0.00000000       0.00000000       0.00000000       0.00000000       0.00000000       0.00000000
H        0.00000000       0.00000000      24.58243212        1       1.00000000       0.00000000       0.00000000       0.00000000       0.00000000       0.00000000       0.00000000
H        2.80615512       0.00000000      24.58243212        1       1.00000000       0.00000000       0.00000000       0.00000000       0.00000000       0.00000000       0.00000000
H        1.40307756       2.43020162      24.58243212        1       1.00000000       0.00000000       0.00000000       0.00000000       0.00000000       0.00000000       0.00000000
H        4.20923268       2.43020162      24.58243212        1       1.00000000       0.00000000       0.00000000       0.00000000       0.00000000       0.00000000       0.00000000
H        2.80615570       4.86040302      17.77172781        0       1.00000000      -0.00000060       0.00000110       0.00000054       0.00000091       0.00000329       0.00000356
H        5.61231048       4.86040329      17.77172714        0       1.00000000       0.00000093       0.00000076      -0.00000043      -0.00000010      -0.00000119      -0.00000081
H        4.21916397       4.05018990      26.81113057        0       1.00000000      -0.00000044      -0.00000007       0.00000033      -0.00000026      -0.00000151      -0.00000175