18
Lattice="5.612310241546866 0.0 0.0 0.0 4.860403243099165 0.0 0.0 0.0 44.58243212332868" Properties=species:S:1:pos:R:3:tags:I:1:masses:R:1:momenta:R:3 KEmax=23.26679191048647 iter=99 volume=1216.1236359717223 ns_energy=14.251382757774063 last_walked_iter_clone=25 ns_P=0.0 config_n_global=99 ns_KE=20.950586548911865 pbc="T T F"
H        1.40307756       0.81006721      20.00000000        3       1.00000000       0.00000000       0.00000000       0.00000000
H        4.20923268       0.81006721      20.00000000        3       1.00000000       0.00000000       0.00000000       0.00000000
H        0.00000000       3.24026883      20.00000000        3       1.00000000       0.00000000       0.00000000       0.00000000
H        2.80615512       3.24026883      20.00000000        3       1.00000000       0.00000000       0.00000000       0.00000000
H        0.00000000       1.62013441      22.29121606        2       1.00000000       0.00000000       0.00000000       0.00000000
H        2.80615512       1.62013441      22.29121606        2       1.00000000       0.00000000       0.00000000       0.00000000
H        1.40307756       4.05033604      22.29121606        2       1.00000000       0.00000000       0.00000000       0.00000000
H        4.20923268       4.05033604      22.29121606        2       1.00000000       0.00000000       0.00000000       0.00000000
H        0.00000000       0.00000000      24.58243212        1       1.00000000       0.00000000       0.00000000       0.00000000
H        2.80615512       0.00000000      24.58243212        1       1.00000000       0.00000000       0.00000000       0.00000000
H        1.40307756       2.43020162      24.58243212        1       1.00000000       0.00000000       0.00000000       0.00000000
H        4.20923268       2.43020162      24.58243212        1       1.00000000       0.00000000       0.00000000       0.00000000
H        4.39821706       4.82072107       7.65849831        0       1.00000000      -0.91558161      -0.12625187      -3.69608702
H        2.67459605       4.59713530       1.37297633        0       1.00000000      -0.09717029       0.71072119      -1.06364646
H        2.18343361       0.24896116      27.52177281        0       1.00000000       0.01738261      -0.34964292      -2.54267827
H        5.16872361       3.91674590       9.50682786        0       1.00000000       1.94370713      -1.95999451       0.01296243
H        3.97100688       0.55958751      37.90132008        0       1.00000000      -1.14077867       2.42128826       0.01873723
H        4.88131675       2.63877063      14.22339780        0       1.00000000      -1.44592672      -1.50428032       0.12057306
18
Lattice="5.612310241546866 0.0 0.0 0.0 4.860403243099165 0.0 0.0 0.0 44.58243212332868" Properties=species:S:1:pos:R:3:tags:I:1:masses:R:1:momenta:R:3 KEmax=23.26679191048647 iter=199 volume=1216.1236359717223 ns_energy=11.036500322276806 last_walked_iter_clone=124 ns_P=0.0 config_n_global=199 ns_KE=17.33659626252707 pbc="T T F"
H        1.40307756       0.81006721      20.00000000        3       1.00000000       0.00000000       0.00000000       0.00000000
H        4.20923268       0.81006721      20.00000000        3       1.00000000       0.00000000       0.00000000       0.00000000
H        0.00000000       3.24026883      20.00000000        3       1.00000000       0.00000000       0.00000000       0.00000000
H        2.80615512       3.24026883      20.00000000        3       1.00000000       0.00000000       0.00000000       0.00000000
H        0.00000000       1.62013441      22.29121606        2       1.00000000       0.00000000       0.00000000       0.00000000
H        2.80615512       1.62013441      22.29121606        2       1.00000000       0.00000000       0.00000000       0.00000000
H        1.40307756       4.05033604      22.29121606        2       1.00000000       0.00000000       0.00000000       0.00000000
H        4.20923268       4.05033604      22.29121606        2       1.00000000       0.00000000       0.00000000       0.00000000
H        0.00000000       0.00000000      24.58243212        1       1.00000000       0.00000000       0.00000000       0.00000000
H        2.80615512       0.00000000      24.58243212        1       1.00000000       0.00000000       0.00000000       0.00000000
H        1.40307756       2.43020162      24.58243212        1       1.00000000       0.00000000       0.00000000       0.00000000
H        4.20923268       2.43020162      24.58243212        1       1.00000000       0.00000000       0.00000000       0.00000000
H        0.22984940       1.45170658       7.93045256        0       1.00000000      -0.43384353       0.35499907      -0.40901042
H        5.05187349       4.54892325      18.27154190        0       1.00000000      -2.16745638      -1.17661909      -0.26752298
H        1.92402590       1.99257251      39.39315027        0       1.00000000       0.23067483      -0.69586544       0.08379415
H        2.12415626       4.21357680       1.14970073        0       1.00000000       0.90931283      -1.74471324       1.29319774
H        3.49591277      -0.51479218      35.77966241        0       1.00000000      -2.20727545      -3.37821638      -0.19285656
H        0.98063784       4.82262077      13.96533652        0       1.00000000       0.83069840       0.00597692       2.22224991
18
Lattice="5.612310241546866 0.0 0.0 0.0 4.860403243099165 0.0 0.0 0.0 44.58243212332868" Properties=species:S:1:pos:R:3:tags:I:1:masses:R:1:momenta:R:3 KEmax=23.26679191048647 iter=299 volume=1216.1236359717223 ns_energy=8.22528590695875 last_walked_iter_clone=248 ns_P=0.0 config_n_global=299 ns_KE=15.516728181953386 pbc="T T F"
H        1.40307756       0.81006721      20.00000000        3       1.00000000       0.00000000       0.00000000       0.00000000
H        4.20923268       0.81006721      20.00000000        3       1.00000000       0.00000000       0.00000000       0.00000000
H        0.00000000       3.24026883      20.00000000        3       1.00000000       0.00000000       0.00000000       0.00000000
H        2.80615512       3.24026883      20.00000000        3       1.00000000       0.00000000       0.00000000       0.00000000
H        0.00000000       1.62013441      22.29121606        2       1.00000000       0.00000000       0.00000000       0.00000000
H        2.80615512       1.62013441      22.29121606        2       1.00000000       0.00000000       0.00000000       0.00000000
H        1.40307756       4.05033604      22.29121606        2       1.00000000       0.00000000       0.00000000       0.00000000
H        4.20923268       4.05033604      22.29121606        2       1.00000000       0.00000000       0.00000000       0.00000000
H        0.00000000       0.00000000      24.58243212        1       1.00000000       0.00000000       0.00000000       0.00000000
H        2.80615512       0.00000000      24.58243212        1       1.00000000       0.00000000       0.00000000       0.00000000
H        1.40307756       2.43020162      24.58243212        1       1.00000000       0.00000000       0.00000000       0.00000000
H        4.20923268       2.43020162      24.58243212        1       1.00000000       0.00000000       0.00000000       0.00000000
H        3.15053634       4.97941423      13.91641291        0       1.00000000       0.71869715       1.81620917       1.88891244
H        1.45710131       3.72552910       3.32610626        0       1.00000000      -0.96985434       2.55731410      -1.67318490
H        1.09271589       1.48610260      31.31749464        0       1.00000000       1.46014082      -0.01400664      -0.85087776
H        2.27326987       4.22561972      17.81759613        0       1.00000000      -0.28663478      -2.31604097      -0.81041687
H        3.04805558       1.20076670      30.18381849        0       1.00000000       0.60396753       0.38427990       1.26772473
H       -0.01667277       1.68463288       8.74083100        0       1.00000000      -0.61278245       0.74614093       1.16589911
18
Lattice="5.612310241546866 0.0 0.0 0.0 4.860403243099165 0.0 0.0 0.0 44.58243212332868" Properties=species:S:1:pos:R:3:tags:I:1:masses:R:1:momenta:R:3 KEmax=23.26679191048647 iter=399 volume=1216.1236359717223 ns_energy=5.897396757157527 last_walked_iter_clone=345 ns_P=0.0 config_n_global=399 ns_KE=13.572821851786232 pbc="T T F"
H        1.40307756       0.81006721      20.00000000        3       1.00000000       0.00000000       0.00000000       0.00000000
H        4.20923268       0.81006721      20.00000000        3       1.00000000       0.00000000       0.00000000       0.00000000
H        0.00000000       3.24026883      20.00000000        3       1.00000000       0.00000000       0.00000000       0.00000000
H        2.80615512       3.24026883      20.00000000        3       1.00000000       0.00000000       0.00000000       0.00000000
H        0.00000000       1.62013441      22.29121606        2       1.00000000       0.00000000       0.00000000       0.00000000
H        2.80615512       1.62013441      22.29121606        2       1.00000000       0.00000000       0.00000000       0.00000000
H        1.40307756       4.05033604      22.29121606        2       1.00000000       0.00000000       0.00000000       0.00000000
H        4.20923268       4.05033604      22.29121606        2       1.00000000       0.00000000       0.00000000       0.00000000
H        0.00000000       0.00000000      24.58243212        1       1.00000000       0.00000000       0.00000000       0.00000000
H        2.80615512       0.00000000      24.58243212        1       1.00000000       0.00000000       0.00000000       0.00000000
H        1.40307756       2.43020162      24.58243212        1       1.00000000       0.00000000       0.00000000       0.00000000
H        4.20923268       2.43020162      24.58243212        1       1.00000000       0.00000000       0.00000000       0.00000000
H        4.59832587       1.85345628       2.44762790        0       1.00000000       0.27283637       0.57968450       0.29612202
H        4.36068801       2.72485775       9.02583340        0       1.00000000      -2.36565576      -0.34389078      -0.18401670
H        1.59168328       1.26959592      35.28343448        0       1.00000000      -0.89562031      -0.77772293       1.21458718
H        4.18457881       1.38295885      17.50302715        0       1.00000000      -0.24692906      -1.60168240       0.90169764
H        3.76383767       0.99150452      34.44233765        0       1.00000000      -2.08987718      -0.29345198      -0.37068811
H        2.25620925       3.36804887       2.81127187        0       1.00000000       0.28866595      -2.95483108       1.08256019
18
Lattice="5.612310241546866 0.0 0.0 0.0 4.860403243099165 0.0 0.0 0.0 44.58243212332868" Properties=species:S:1:pos:R:3:tags:I:1:masses:R:1:momenta:R:3 KEmax=23.26679191048647 iter=499 volume=1216.1236359717223 ns_energy=4.141127253507135 last_walked_iter_clone=436 ns_P=0.0 config_n_global=499 ns_KE=12.029405621797261 pbc="T T F"
H        1.40307756       0.81006721      20.00000000        3       1.00000000       0.00000000       0.00000000       0.00000000
H        4.20923268       0.81006721      20.00000000        3       1.00000000       0.00000000       0.00000000       0.00000000
H        0.00000000       3.24026883      20.00000000        3       1.00000000       0.00000000       0.00000000       0.00000000
H        2.80615512       3.24026883      20.00000000        3       1.00000000       0.00000000       0.00000000       0.00000000
H        0.00000000       1.62013441      22.29121606        2       1.00000000       0.00000000       0.00000000       0.00000000
H        2.80615512       1.62013441      22.29121606        2       1.00000000       0.00000000       0.00000000       0.00000000
H        1.40307756       4.05033604      22.29121606        2       1.00000000       0.00000000       0.00000000       0.00000000
H        4.20923268       4.05033604      22.29121606        2       1.00000000       0.00000000       0.00000000       0.00000000
H        0.00000000       0.00000000      24.58243212        1       1.00000000       0.00000000       0.00000000       0.00000000
H        2.80615512       0.00000000      24.58243212        1       1.00000000       0.00000000       0.00000000       0.00000000
H        1.40307756       2.43020162      24.58243212        1       1.00000000       0.00000000       0.00000000       0.00000000
H        4.20923268       2.43020162      24.58243212        1       1.00000000       0.00000000       0.00000000       0.00000000
H        4.38498218       0.18792758       4.85329104        0       1.00000000      -1.90369487      -0.94675251       0.14728588
H        3.55258444       0.30983054      14.08808542        0       1.00000000      -1.11106721       0.74015098      -1.25545102
H        3.15919575       1.40768759      27.51827211        0       1.00000000       1.99153259      -0.00128780       0.92985435
H        1.19730052       3.46898825      10.71862894        0       1.00000000       0.76933769       2.11963437       0.46449922
H        2.66735869       0.63973916      33.20002682        0       1.00000000      -0.46199620       0.53075936       1.18308109
H        2.93756276       1.57293628      10.12214552        0       1.00000000       0.17726785      -1.66349435      -1.15476650
18
Lattice="5.612310241546866 0.0 0.0 0.0 4.860403243099165 0.0 0.0 0.0 44.58243212332868" Properties=species:S:1:pos:R:3:tags:I:1:masses:R:1:momenta:R:3 KEmax=23.26679191048647 iter=599 volume=1216.1236359717223 ns_energy=2.654915942045773 last_walked_iter_clone=575 ns_P=0.0 config_n_global=599 ns_KE=10.242906389854625 pbc="T T F"
H        1.40307756       0.81006721      20.00000000        3       1.00000000       0.00000000       0.00000000       0.00000000
H        4.20923268       0.81006721      20.00000000        3       1.00000000       0.00000000       0.00000000       0.00000000
H        0.00000000       3.24026883      20.00000000        3       1.00000000       0.00000000       0.00000000       0.00000000
H        2.80615512       3.24026883      20.00000000        3       1.00000000       0.00000000       0.00000000       0.00000000
H        0.00000000       1.62013441      22.29121606        2       1.00000000       0.00000000       0.00000000       0.00000000
H        2.80615512       1.62013441      22.29121606        2       1.00000000       0.00000000       0.00000000       0.00000000
H        1.40307756       4.05033604      22.29121606        2       1.00000000       0.00000000       0.00000000       0.00000000
H        4.20923268       4.05033604      22.29121606        2       1.00000000       0.00000000       0.00000000       0.00000000
H        0.00000000       0.00000000      24.58243212        1       1.00000000       0.00000000       0.00000000       0.00000000
H        2.80615512       0.00000000      24.58243212        1       1.00000000       0.00000000       0.00000000       0.00000000
H        1.40307756       2.43020162      24.58243212        1       1.00000000       0.00000000       0.00000000       0.00000000
H        4.20923268       2.43020162      24.58243212        1       1.00000000       0.00000000       0.00000000       0.00000000
H        4.89358788       1.18596063       1.64565171        0       1.00000000      -0.75348843      -0.18036169       1.11548949
H        2.32325019       1.28484072      16.17209620        0       1.00000000      -0.49094943       0.02992478      -0.94762066
H        4.56423410       2.38834048      41.40523388        0       1.00000000      -1.10707856       0.28512554       3.09886819
H        1.30730692       3.46482869      12.35541028        0       1.00000000      -1.29150935       0.13677011       1.37896589
H        4.19281399       1.10970305      33.32611248        0       1.00000000      -1.12342393       0.73874242       0.54590118
H        0.60318428       3.04234281       0.64448590        0       1.00000000       0.08440983      -0.63707106      -0.69594668
18
Lattice="5.612310241546866 0.0 0.0 0.0 4.860403243099165 0.0 0.0 0.0 44.58243212332868" Properties=species:S:1:pos:R:3:tags:I:1:masses:R:1:momenta:R:3 KEmax=23.26679191048647 iter=699 volume=1216.1236359717223 ns_energy=1.4532511871555132 last_walked_iter_clone=634 ns_P=0.0 config_n_global=699 ns_KE=9.342055734875487 pbc="T T F"
H        1.40307756       0.81006721      20.00000000        3       1.00000000       0.00000000       0.00000000       0.00000000
H        4.20923268       0.81006721      20.00000000        3       1.00000000       0.00000000       0.00000000       0.00000000
H        0.00000000       3.24026883      20.00000000        3       1.00000000       0.00000000       0.00000000       0.00000000
H        2.80615512       3.24026883      20.00000000        3       1.00000000       0.00000000       0.00000000       0.00000000
H        0.00000000       1.62013441      22.29121606        2       1.00000000       0.00000000       0.00000000       0.00000000
H        2.80615512       1.62013441      22.29121606        2       1.00000000       0.00000000       0.00000000       0.00000000
H        1.40307756       4.05033604      22.29121606        2       1.00000000       0.00000000       0.00000000       0.00000000
H        4.20923268       4.05033604      22.29121606        2       1.00000000       0.00000000       0.00000000       0.00000000
H        0.00000000       0.00000000      24.58243212        1       1.00000000       0.00000000       0.00000000       0.00000000
H        2.80615512       0.00000000      24.58243212        1       1.00000000       0.00000000       0.00000000       0.00000000
H        1.40307756       2.43020162      24.58243212        1       1.00000000       0.00000000       0.00000000       0.00000000
H        4.20923268       2.43020162      24.58243212        1       1.00000000       0.00000000       0.00000000       0.00000000
H        5.56036632       3.12356900       9.90491756        0       1.00000000       0.81112246       2.17139524       1.28712913
H        2.78571366       2.55083033      10.41509560        0       1.00000000       0.64122214      -1.74146867       1.26008786
H        0.90269229      -0.24649225      35.93912956        0       1.00000000       0.76562598      -0.94327011      -0.78747308
H        1.17533889       3.58685507       1.23099632        0       1.00000000       0.66389825      -0.98778003       0.33614469
H        3.95845200       3.98703296      35.31330245        0       1.00000000      -0.00997040      -0.47384445       0.99839632
H        4.25648476       1.50217513       6.86676957        0       1.00000000       1.28979826       0.29217096      -0.16415583
18
Lattice="5.612310241546866 0.0 0.0 0.0 4.860403243099165 0.0 0.0 0.0 44.58243212332868" Properties=species:S:1:pos:R:3:tags:I:1:masses:R:1:momenta:R:3 KEmax=23.26679191048647 iter=799 volume=1216.1236359717223 ns_energy=0.5793240609242086 last_walked_iter_clone=741 ns_P=0.0 config_n_global=799 ns_KE=8.519496363213936 pbc="T T F"
H        1.40307756       0.81006721      20.00000000        3       1.00000000       0.00000000       0.00000000       0.00000000
H        4.20923268       0.81006721      20.00000000        3       1.00000000       0.00000000       0.00000000       0.00000000
H        0.00000000       3.24026883      20.00000000        3       1.00000000       0.00000000       0.00000000       0.00000000
H        2.80615512       3.24026883      20.00000000        3       1.00000000       0.00000000       0.00000000       0.00000000
H        0.00000000       1.62013441      22.29121606        2       1.00000000       0.00000000       0.00000000       0.00000000
H        2.80615512       1.62013441      22.29121606        2       1.00000000       0.00000000       0.00000000       0.00000000
H        1.40307756       4.05033604      22.29121606        2       1.00000000       0.00000000       0.00000000       0.00000000
H        4.20923268       4.05033604      22.29121606        2       1.00000000       0.00000000       0.00000000       0.00000000
H        0.00000000       0.00000000      24.58243212        1       1.00000000       0.00000000       0.00000000       0.00000000
H        2.80615512       0.00000000      24.58243212        1       1.00000000       0.00000000       0.00000000       0.00000000
H        1.40307756       2.43020162      24.58243212        1       1.00000000       0.00000000       0.00000000       0.00000000
H        4.20923268       2.43020162      24.58243212        1       1.00000000       0.00000000       0.00000000       0.00000000
H        1.93859558       2.95890486      14.59493656        0       1.00000000      -0.45057843      -0.00334440       1.22580851
H        0.96823799       1.04319431      12.17454221        0       1.00000000      -0.76363976       1.24862980       0.99188900
H        5.56734997       1.84480636      31.80452376        0       1.00000000       0.33324957       1.02109122       0.21258084
H        1.26232739       0.34929711       0.15863279        0       1.00000000      -0.44976575      -0.96244134      -1.06147905
H        2.37276301       1.83377196      34.06559546        0       1.00000000      -0.40796034      -0.60682786       2.41235753
H        5.33812317       1.52442137      17.02220229        0       1.00000000       0.37736004       0.45645828       1.43115319
18
Lattice="5.612310241546866 0.0 0.0 0.0 4.860403243099165 0.0 0.0 0.0 44.58243212332868" Properties=species:S:1:pos:R:3:tags:I:1:masses:R:1:momenta:R:3 KEmax=23.26679191048647 iter=899 volume=1216.1236359717223 ns_energy=-0.045591713465422415 last_walked_iter_clone=845 ns_P=0.0 config_n_global=899 ns_KE=8.244483116643332 pbc="T T F"
H        1.40307756       0.81006721      20.00000000        3       1.00000000       0.00000000       0.00000000       0.00000000
H        4.20923268       0.81006721      20.00000000        3       1.00000000       0.00000000       0.00000000       0.00000000
H        0.00000000       3.24026883      20.00000000        3       1.00000000       0.00000000       0.00000000       0.00000000
H        2.80615512       3.24026883      20.00000000        3       1.00000000       0.00000000       0.00000000       0.00000000
H        0.00000000       1.62013441      22.29121606        2       1.00000000       0.00000000       0.00000000       0.00000000
H        2.80615512       1.62013441      22.29121606        2       1.00000000       0.00000000       0.00000000       0.00000000
H        1.40307756       4.05033604      22.29121606        2       1.00000000       0.00000000       0.00000000       0.00000000
H        4.20923268       4.05033604      22.29121606        2       1.00000000       0.00000000       0.00000000       0.00000000
H        0.00000000       0.00000000      24.58243212        1       1.00000000       0.00000000       0.00000000       0.00000000
H        2.80615512       0.00000000      24.58243212        1       1.00000000       0.00000000       0.00000000       0.00000000
H        1.40307756       2.43020162      24.58243212        1       1.00000000       0.00000000       0.00000000       0.00000000
H        4.20923268       2.43020162      24.58243212        1       1.00000000       0.00000000       0.00000000       0.00000000
H        0.98895818       4.30685986      16.10451613        0       1.00000000      -1.85416597      -0.09841406       0.01758889
H        2.97318173       0.19944126       3.45033413        0       1.00000000      -0.81788296       0.61689042       0.71487949
H        3.57793934       0.51727036      33.73075062        0       1.00000000       0.61486281      -0.31554544      -0.09977483
H        3.51820845       1.88138906      16.49253397        0       1.00000000      -0.01138769      -1.31732539       0.06520703
H        4.91505724       4.06264732      26.84760577        0       1.00000000      -1.22100476      -1.95033914      -0.97466875
H        5.49093431       2.42778763      13.80775643        0       1.00000000      -0.10817734      -0.55823507      -1.63866097
18
Lattice="5.612310241546866 0.0 0.0 0.0 4.860403243099165 0.0 0.0 0.0 44.58243212332868" Properties=species:S:1:pos:R:3:tags:I:1:masses:R:1:momenta:R:3 KEmax=23.26679191048647 iter=999 volume=1216.1236359717223 ns_energy=-0.7301282197039874 last_walked_iter_clone=941 ns_P=0.0 config_n_global=999 ns_KE=6.9219821038990474 pbc="T T F"
H        1.40307756       0.81006721      20.00000000        3       1.00000000       0.00000000       0.00000000       0.00000000
H        4.20923268       0.81006721      20.00000000        3       1.00000000       0.00000000       0.00000000       0.00000000
H        0.00000000       3.24026883      20.00000000        3       1.00000000       0.00000000       0.00000000       0.00000000
H        2.80615512       3.24026883      20.00000000        3       1.00000000       0.00000000       0.00000000       0.00000000
H        0.00000000       1.62013441      22.29121606        2       1.00000000       0.00000000       0.00000000       0.00000000
H        2.80615512       1.62013441      22.29121606        2       1.00000000       0.00000000       0.00000000       0.00000000
H        1.40307756       4.05033604      22.29121606        2       1.00000000       0.00000000       0.00000000       0.00000000
H        4.20923268       4.05033604      22.29121606        2       1.00000000       0.00000000       0.00000000       0.00000000
H        0.00000000       0.00000000      24.58243212        1       1.00000000       0.00000000       0.00000000       0.00000000
H        2.80615512       0.00000000      24.58243212        1       1.00000000       0.00000000       0.00000000       0.00000000
H        1.40307756       2.43020162      24.58243212        1       1.00000000       0.00000000       0.00000000       0.00000000
H        4.20923268       2.43020162      24.58243212        1       1.00000000       0.00000000       0.00000000       0.00000000
H        1.50818839       2.82625265       2.76676461        0       1.00000000      -0.41983009      -1.73946577       0.36570668
H        2.66939128       0.05946329      13.15685711        0       1.00000000      -0.02852263      -0.51742055       2.35855964
H        1.27811349       1.52115585      31.52540755        0       1.00000000       0.16301633      -0.50884397       0.01989168
H        2.09472937       2.36923198      16.50631943        0       1.00000000       0.02452152       0.78641671      -0.52988775
H        3.60773452       2.80351275      43.55006736        0       1.00000000       0.02699927       0.31591992       0.25180504
H        4.97008608       4.45348023       5.34261115        0       1.00000000       1.45637461       0.15176616       1.08773037
18
Lattice="5.612310241546866 0.0 0.0 0.0 4.860403243099165 0.0 0.0 0.0 44.58243212332868" Properties=species:S:1:pos:R:3:tags:I:1:masses:R:1:momenta:R:3 KEmax=23.26679191048647 iter=1099 volume=1216.1236359717223 ns_energy=-1.2081652546773505 last_walked_iter_clone=981 ns_P=0.0 config_n_global=1099 ns_KE=6.480554459292531 pbc="T T F"
H        1.40307756       0.81006721      20.00000000        3       1.00000000       0.00000000       0.00000000       0.00000000
H        4.20923268       0.81006721      20.00000000        3       1.00000000       0.00000000       0.00000000       0.00000000
H        0.00000000       3.24026883      20.00000000        3       1.00000000       0.00000000       0.00000000       0.00000000
H        2.80615512       3.24026883      20.00000000        3       1.00000000       0.00000000       0.00000000       0.00000000
H        0.00000000       1.62013441      22.29121606        2       1.00000000       0.00000000       0.00000000       0.00000000
H        2.80615512       1.62013441      22.29121606        2       1.00000000       0.00000000       0.00000000       0.00000000
H        1.40307756       4.05033604      22.29121606        2       1.00000000       0.00000000       0.00000000       0.00000000
H        4.20923268       4.05033604      22.29121606        2       1.00000000       0.00000000       0.00000000       0.00000000
H        0.00000000       0.00000000      24.58243212        1       1.00000000       0.00000000       0.00000000       0.00000000
H        2.80615512       0.00000000      24.58243212        1       1.00000000       0.00000000       0.00000000       0.00000000
H        1.40307756       2.43020162      24.58243212        1       1.00000000       0.00000000       0.00000000       0.00000000
H        4.20923268       2.43020162      24.58243212        1       1.00000000       0.00000000       0.00000000       0.00000000
H        2.69656435       1.28878052      10.50760412        0       1.00000000       1.16935556       0.72185137       1.53470621
H        0.58912546       4.60796465      12.20569938        0       1.00000000      -1.16218574       1.21066081      -1.04208714
H        5.14623209       1.38022046      31.27668913        0       1.00000000       0.69580721       0.27060949       0.55914467
H        4.89256709       3.13566375       7.70474720        0       1.00000000       0.26830162       0.40241485      -0.82662261
H        2.60008652       1.36008353      33.46199389        0       1.00000000       1.34540683      -0.58566918      -0.40303170
H        1.97341866       0.98021005       0.50267750        0       1.00000000       0.51889155      -0.66391965      -0.04641636
18
Lattice="5.612310241546866 0.0 0.0 0.0 4.860403243099165 0.0 0.0 0.0 44.58243212332868" Properties=species:S:1:pos:R:3:tags:I:1:masses:R:1:momenta:R:3 KEmax=23.26679191048647 iter=1199 volume=1216.1236359717223 ns_energy=-1.653829632526591 last_walked_iter_clone=1110 ns_P=0.0 config_n_global=1199 ns_KE=6.184086623668489 pbc="T T F"