18
Lattice="5.612310241546866 0.0 0.0 0.0 4.860403243099165 0.0 0.0 0.0 44.58243212332868" Properties=species:S:1:pos:R:3:tags:I:1:masses:R:1:momenta:R:3:forces:R:3 KEmax=23.26679191048647 iter=119999 volume=1216.1236359717223 ns_energy=-11.63665137403501 last_walked_iter_clone=119564 energy=-11.636651374037857 stress="0.022580595515973884 2.7718991597266833e-09 4.198968887454046e-09 2.7718991597266833e-09 0.022694980510851767 -1.2719834489386377e-08 4.198968887454046e-09 -1.2719834489386377e-08 0.012369958360386938" pbc="T T F"
H        1.40307756       0.81006721      20.00000000        3       1.00000000       0.00000000       0.00000000       0.00000000       0.00000000       0.00000000       0.00000000
H        4.20923268       0.81006721      20.00000000        3       1.00000000       0.00000000       0.00000000       0.00000000       0.00000000       0.00000000       0.00000000
H        0.00000000       3.24026883      20.00000000        3       1.00000000       0.00000000       0.00000000       0.00000000       0.00000000       0.00000000       0.00000000
H        2.80615512       3.24026883      20.00000000        3       1.00000000       0.00000000       0.00000000       0.00000000       0.00000000       0.00000000       0.00000000
H        0.00000000       1.62013441      22.29121606        2       1.00000000       0.00000000       0.00000000       0.00000000       0.00000000       0.00000000       0.00000000
H        2.80615512       1.62013441      22.29121606        2       1.00000000       0.00000000       0.00000000       0.00000000       0.00000000       0.00000000       0.00000000
H        1.40307756       4.05033604      22.29121606        2       1.00000000       0.00000000       0.00000000       0.00000000       0.00000000       0.00000000       0.00000000
H        4.20923268       4.05033604      22.29121606        2       1.00000000       0.00000000       0.00000000       0.00000000       0.00000000       0.00000000       0.00000000
H        0.00000000       0.00000000      24.58243212        1       1.00000000       0.00000000       0.00000000       0.00000000       0.00000000       0.00000000       0.00000000
H        2.80615512       0.00000000      24.58243212        1       1.00000000       0.00000000       0.00000000       0.00000000       0.00000000       0.00000000       0.00000000
H        1.40307756       2.43020162      24.58243212        1       1.00000000       0.00000000       0.00000000       0.00000000       0.00000000       0.00000000       0.00000000
H        4.20923268       2.43020162      24.58243212        1       1.00000000       0.00000000       0.00000000       0.00000000       0.00000000       0.00000000       0.00000000
H        2.80615507       4.86040364      17.77172710        0       1.00000000      -0.00000003       0.00000039       0.00000024      -0.00000096      -0.00000185      -0.00000053
H        5.61231069       4.86040348      17.77172637        0       1.00000000       0.00000037       0.00000041       0.00000117       0.00000076       0.00000085      -0.00000131
H        4.21916474       4.05018807      26.81113076        0       1.00000000       0.00000036      -0.00000053      -0.00000034      -0.00000093      -0.00000124       0.00000042
H        4.20923275       2.43020188      17.77172715        0       1.00000000       0.00000095      -0.00000009       0.00000020      -0.00000063       0.00000077      -0.00000130
H        2.79622393       1.61998689      26.81113035        0       1.00000000       0.00000064       0.00000096      -0.00000066       0.00000050       0.00000067       0.00000093
H        1.40307761       2.43020221      17.77172732        0       1.00000000       0.00000035       0.00000040      -0.00000171       0.00000085      -0.00000132       0.00000158
18
Lattice="5.612310241546866 0.0 0.0 0.0 4.860403243099165 0.0 0.0 0.0 44.58243212332868" Properties=species:S:1:pos:R:3:tags:I:1:masses:R:1:momenta:R:3:forces:R:3 KEmax=23.26679191048647 iter=119999 volume=1216.1236359717223 ns_energy=-11.636651374034896 last_walked_iter_clone=118919 energy=-11.636651374037857 stress="0.022580595515973884 2.7718991597266833e-09 4.198968887454046e-09 2.7718991597266833e-09 0.022694980510851767 -1.2719834489386377e-08 4.198968887454046e-09 -1.2719834489386377e-08 0.012369958360386938" pbc="T T F"
H        1.40307756       0.81006721      20.00000000        3       1.00000000       0.00000000       0.00000000       0.00000000       0.00000000       0.00000000       0.00000000
H        4.20923268       0.81006721      20.00000000        3       1.00000000       0.00000000       0.00000000       0.00000000       0.00000000       0.00000000       0.00000000
H        0.00000000       3.24026883      20.00000000        3       1.00000000       0.00000000       0.00000000       0.00000000       0.00000000       0.00000000       0.00000000
H        2.80615512       3.24026883      20.00000000        3       1.00000000       0.00000000       0.00000000       0.00000000       0.00000000       0.00000000       0.00000000
H        0.00000000       1.62013441      22.29121606        2       1.00000000       0.00000000       0.00000000       0.00000000       0.00000000       0.00000000       0.00000000
H        2.80615512       1.62013441      22.29121606        2       1.00000000       0.00000000       0.00000000       0.00000000       0.00000000       0.00000000       0.00000000
H        1.40307756       4.05033604      22.29121606        2       1.00000000       0.00000000       0.00000000       0.00000000       0.00000000       0.00000000       0.00000000
H        4.20923268       4.05033604      22.29121606        2       1.00000000       0.00000000       0.00000000       0.00000000       0.00000000       0.00000000       0.00000000
H        0.00000000       0.00000000      24.58243212        1       1.00000000       0.00000000       0.00000000       0.00000000       0.00000000       0.00000000       0.00000000
H        2.80615512       0.00000000      24.58243212        1       1.00000000       0.00000000       0.00000000       0.00000000       0.00000000       0.00000000       0.00000000
H        1.40307756       2.43020162      24.58243212        1       1.00000000       0.00000000       0.00000000       0.00000000       0.00000000       0.00000000       0.00000000
H        4.20923268       2.43020162      24.58243212        1       1.00000000       0.00000000       0.00000000       0.00000000       0.00000000       0.00000000       0.00000000
H        2.80615521       0.00000111      17.77172715        0       1.00000000      -0.00000029      -0.00000052       0.00000046      -0.00000096      -0.00000185      -0.00000053
H       -0.00000014       0.00000038      17.77172791        0       1.00000000       0.00000026      -0.00000047      -0.00000071       0.00000076       0.00000085      -0.00000131
H        4.21916519       4.05018968      26.81113087        0       1.00000000      -0.00000003       0.00000067       0.00000099      -0.00000093      -0.00000124       0.00000042
H        4.20923227       2.43020227      17.77172767        0       1.00000000       0.00000063       0.00000018      -0.00000069      -0.00000063       0.00000077      -0.00000130
H        2.79622521       1.61998765      26.81113022        0       1.00000000       0.00000099      -0.00000048      -0.00000045       0.00000050       0.00000067       0.00000093
H        1.40307707       2.43020245      17.77172733        0       1.00000000      -0.00000016       0.00000030       0.00000021       0.00000085      -0.00000132       0.00000158
18
Lattice="5.612310241546866 0.0 0.0 0.0 4.860403243099165 0.0 0.0 0.0 44.58243212332868" Properties=species:S:1:pos:R:3:tags:I:1:masses:R:1:momenta:R:3:forces:R:3 KEmax=23.26679191048647 iter=119999 volume=1216.1236359717223 ns_energy=-11.636651374035187 last_walked_iter_clone=119141 energy=-11.636651374037857 stress="0.022580595515973884 2.7718991597266833e-09 4.198968887454046e-09 2.7718991597266833e-09 0.022694980510851767 -1.2719834489386377e-08 4.198968887454046e-09 -1.2719834489386377e-08 0.012369958360386938" pbc="T T F"
H        1.40307756       0.81006721      20.00000000        3       1.00000000       0.00000000       0.00000000       0.00000000       0.00000000       0.00000000       0.00000000
H        4.20923268       0.81006721      20.00000000        3       1.00000000       0.00000000       0.00000000       0.00000000       0.00000000       0.00000000       0.00000000
H        0.00000000       3.24026883      20.00000000        3       1.00000000       0.00000000       0.00000000       0.00000000       0.00000000       0.00000000       0.00000000
H        2.80615512       3.24026883      20.00000000        3       1.00000000       0.00000000       0.00000000       0.00000000       0.00000000       0.00000000       0.00000000
H        0.00000000       1.62013441      22.29121606        2       1.00000000       0.00000000       0.00000000       0.00000000       0.00000000       0.00000000       0.00000000
H        2.80615512       1.62013441      22.29121606        2       1.00000000       0.00000000       0.00000000       0.00000000       0.00000000       0.00000000       0.00000000
H        1.40307756       4.05033604      22.29121606        2       1.00000000       0.00000000       0.00000000       0.00000000       0.00000000       0.00000000       0.00000000
H        4.20923268       4.05033604      22.29121606        2       1.00000000       0.00000000       0.00000000       0.00000000       0.00000000       0.00000000       0.00000000
H        0.00000000       0.00000000      24.58243212        1       1.00000000       0.00000000       0.00000000       0.00000000       0.00000000       0.00000000       0.00000000
H        2.80615512       0.00000000      24.58243212        1       1.00000000       0.00000000       0.00000000       0.00000000       0.00000000       0.00000000       0.00000000
H        1.40307756       2.43020162      24.58243212        1       1.00000000       0.00000000       0.00000000       0.00000000       0.00000000       0.00000000       0.00000000
H        4.20923268       2.43020162      24.58243212        1       1.00000000       0.00000000       0.00000000       0.00000000       0.00000000       0.00000000       0.00000000
H        2.80615563       4.86040334      17.77172697        0       1.00000000      -0.00000068       0.00000067      -0.00000048      -0.00000096      -0.00000185      -0.00000053
H        5.61231113       0.00000030      17.77172697        0       1.00000000       0.00000046      -0.00000056       0.00000012       0.00000076       0.00000085      -0.00000131
H        4.21916345       4.05018918      26.81113084        0       1.00000000       0.00000076      -0.00000129      -0.00000048      -0.00000093      -0.00000124       0.00000042
H        4.20923347       2.43020187      17.77172662        0       1.00000000       0.00000126       0.00000036       0.00000086      -0.00000063       0.00000077      -0.00000130
H        2.79622430       1.61998750      26.81112996        0       1.00000000      -0.00000022      -0.00000047      -0.00000030       0.00000050       0.00000067       0.00000093
H        1.40307828       2.43020198      17.77172708        0       1.00000000       0.00000057      -0.00000051      -0.00000093       0.00000085      -0.00000132       0.00000158
18
Lattice="5.612310241546866 0.0 0.0 0.0 4.860403243099165 0.0 0.0 0.0 44.58243212332868" Properties=species:S:1:pos:R:3:tags:I:1:masses:R:1:momenta:R:3:forces:R:3 KEmax=23.26679191048647 iter=119999 volume=1216.1236359717223 ns_energy=-11.636651374034907 last_walked_iter_clone=119369 energy=-11.636651374037857 stress="0.022580595515973884 2.7718991597266833e-09 4.198968887454046e-09 2.7718991597266833e-09 0.022694980510851767 -1.2719834489386377e-08 4.198968887454046e-09 -1.2719834489386377e-08 0.012369958360386938" pbc="T T F"
H        1.40307756       0.81006721      20.00000000        3       1.00000000       0.00000000       0.00000000       0.00000000       0.00000000       0.00000000       0.00000000
H        4.20923268       0.81006721      20.00000000        3       1.00000000       0.00000000       0.00000000       0.00000000       0.00000000       0.00000000       0.00000000
H        0.00000000       3.24026883      20.00000000        3       1.00000000       0.00000000       0.00000000       0.00000000       0.00000000       0.00000000       0.00000000
H        2.80615512       3.24026883      20.00000000        3       1.00000000       0.00000000       0.00000000       0.00000000       0.00000000       0.00000000       0.00000000
H        0.00000000       1.62013441      22.29121606        2       1.00000000       0.00000000       0.00000000       0.00000000       0.00000000       0.00000000       0.00000000
H        2.80615512       1.62013441      22.29121606        2       1.00000000       0.00000000       0.00000000       0.00000000       0.00000000       0.00000000       0.00000000
H        1.40307756       4.05033604      22.29121606        2       1.00000000       0.00000000       0.00000000       0.00000000       0.00000000       0.00000000       0.00000000
H        4.20923268       4.05033604      22.29121606        2       1.00000000       0.00000000       0.00000000       0.00000000       0.00000000       0.00000000       0.00000000
H        0.00000000       0.00000000      24.58243212        1       1.00000000       0.00000000       0.00000000       0.00000000       0.00000000       0.00000000       0.00000000
H        2.80615512       0.00000000      24.58243212        1       1.00000000       0.00000000       0.00000000       0.00000000       0.00000000       0.00000000       0.00000000
H        1.40307756       2.43020162      24.58243212        1       1.00000000       0.00000000       0.00000000       0.00000000       0.00000000       0.00000000       0.00000000
H        4.20923268       2.43020162      24.58243212        1       1.00000000       0.00000000       0.00000000       0.00000000       0.00000000       0.00000000       0.00000000
H        2.80615545      -0.00000027      17.77172688        0       1.00000000      -0.00000055       0.00000020       0.00000008      -0.00000096      -0.00000185      -0.00000053
H        5.61231016       0.00000032      17.77172635        0       1.00000000      -0.00000023      -0.00000001      -0.00000024       0.00000076       0.00000085      -0.00000131
H        4.21916485       4.05019067      26.81113110        0       1.00000000       0.00000060       0.00000005       0.00000057      -0.00000093      -0.00000124       0.00000042
H        4.20923287       2.43020114      17.77172740        0       1.00000000       0.00000056      -0.00000006      -0.00000037      -0.00000063       0.00000077      -0.00000130
H        2.79622403       1.61998924      26.81113146        0       1.00000000      -0.00000039      -0.00000035       0.00000001       0.00000050       0.00000067       0.00000093
H        1.40307766       2.43020168      17.77172710        0       1.00000000      -0.00000028      -0.00000019      -0.00000119       0.00000085      -0.00000132       0.00000158
18
Lattice="5.612310241546866 0.0 0.0 0.0 4.860403243099165 0.0 0.0 0.0 44.58243212332868" Properties=species:S:1:pos:R:3:tags:I:1:masses:R:1:momenta:R:3:forces:R:3 KEmax=23.26679191048647 iter=119999 volume=1216.1236359717223 ns_energy=-11.636651374034956 last_walked_iter_clone=119995 energy=-11.636651374037857 stress="0.022580595515973884 2.7718991597266833e-09 4.198968887454046e-09 2.7718991597266833e-09 0.022694980510851767 -1.2719834489386377e-08 4.198968887454046e-09 -1.2719834489386377e-08 0.012369958360386938" pbc="T T F"
H        1.40307756       0.81006721      20.00000000        3       1.00000000       0.00000000       0.00000000       0.00000000       0.00000000       0.00000000       0.00000000
H        4.20923268       0.81006721      20.00000000        3       1.00000000       0.00000000       0.00000000       0.00000000       0.00000000       0.00000000       0.00000000
H        0.00000000       3.24026883      20.00000000        3       1.00000000       0.00000000       0.00000000       0.00000000       0.00000000       0.00000000       0.00000000
H        2.80615512       3.24026883      20.00000000        3       1.00000000       0.00000000       0.00000000       0.00000000       0.00000000       0.00000000       0.00000000
H        0.00000000       1.62013441      22.29121606        2       1.00000000       0.00000000       0.00000000       0.00000000       0.00000000       0.00000000       0.00000000
H        2.80615512       1.62013441      22.29121606        2       1.00000000       0.00000000       0.00000000       0.00000000       0.00000000       0.00000000       0.00000000
H        1.40307756       4.05033604      22.29121606        2       1.00000000       0.00000000       0.00000000       0.00000000       0.00000000       0.00000000       0.00000000
H        4.20923268       4.05033604      22.29121606        2       1.00000000       0.00000000       0.00000000       0.00000000       0.00000000       0.00000000       0.00000000
H        0.00000000       0.00000000      24.58243212        1       1.00000000       0.00000000       0.00000000       0.00000000       0.00000000       0.00000000       0.00000000
H        2.80615512       0.00000000      24.58243212        1       1.00000000       0.00000000       0.00000000       0.00000000       0.00000000       0.00000000       0.00000000
H        1.40307756       2.43020162      24.58243212        1       1.00000000       0.00000000       0.00000000       0.00000000       0.00000000       0.00000000       0.00000000
H        4.20923268       2.43020162      24.58243212        1       1.00000000       0.00000000       0.00000000       0.00000000       0.00000000       0.00000000       0.00000000
H        2.80615460       0.00000023      17.77172728        0       1.00000000       0.00000011      -0.00000113      -0.00000045      -0.00000096      -0.00000185      -0.00000053
H       -0.00000036       0.00000041      17.77172660        0       1.00000000      -0.00000040       0.00000086       0.00000068       0.00000076       0.00000085      -0.00000131
H        4.21916337       4.05018829      26.81113070        0       1.00000000       0.00000044      -0.00000017      -0.00000003      -0.00000093      -0.00000124       0.00000042
H        4.20923219       2.43020158      17.77172740        0       1.00000000      -0.00000083      -0.00000034       0.00000024      -0.00000063       0.00000077      -0.00000130
H        2.79622489       1.61998655      26.81113028        0       1.00000000      -0.00000029      -0.00000160       0.00000008       0.00000050       0.00000067       0.00000093
H        1.40307702       2.43020221      17.77172701        0       1.00000000       0.00000065      -0.00000014       0.00000076       0.00000085      -0.00000132       0.00000158
18
Lattice="5.612310241546866 0.0 0.0 0.0 4.860403243099165 0.0 0.0 0.0 44.58243212332868" Properties=species:S:1:pos:R:3:tags:I:1:masses:R:1:momenta:R:3:forces:R:3 KEmax=23.26679191048647 iter=119999 volume=1216.1236359717223 ns_energy=-11.636651374034921 last_walked_iter_clone=118918 energy=-11.636651374037857 stress="0.022580595515973884 2.7718991597266833e-09 4.198968887454046e-09 2.7718991597266833e-09 0.022694980510851767 -1.2719834489386377e-08 4.198968887454046e-09 -1.2719834489386377e-08 0.012369958360386938" pbc="T T F"
H        1.40307756       0.81006721      20.00000000        3       1.00000000       0.00000000       0.00000000       0.00000000       0.00000000       0.00000000       0.00000000
H        4.20923268       0.81006721      20.00000000        3       1.00000000       0.00000000       0.00000000       0.00000000       0.00000000       0.00000000       0.00000000
H        0.00000000       3.24026883      20.00000000        3       1.00000000       0.00000000       0.00000000       0.00000000       0.00000000       0.00000000       0.00000000
H        2.80615512       3.24026883      20.00000000        3       1.00000000       0.00000000       0.00000000       0.00000000       0.00000000       0.00000000       0.00000000
H        0.00000000       1.62013441      22.29121606        2       1.00000000       0.00000000       0.00000000       0.00000000       0.00000000       0.00000000       0.00000000
H        2.80615512       1.62013441      22.29121606        2       1.00000000       0.00000000       0.00000000       0.00000000       0.00000000       0.00000000       0.00000000
H        1.40307756       4.05033604      22.29121606        2       1.00000000       0.00000000       0.00000000       0.00000000       0.00000000       0.00000000       0.00000000
H        4.20923268       4.05033604      22.29121606        2       1.00000000       0.00000000       0.00000000       0.00000000       0.00000000       0.00000000       0.00000000
H        0.00000000       0.00000000      24.58243212        1       1.00000000       0.00000000       0.00000000       0.00000000       0.00000000       0.00000000       0.00000000
H        2.80615512       0.00000000      24.58243212        1       1.00000000       0.00000000       0.00000000       0.00000000       0.00000000       0.00000000       0.00000000
H        1.40307756       2.43020162      24.58243212        1       1.00000000       0.00000000       0.00000000       0.00000000       0.00000000       0.00000000       0.00000000
H        4.20923268       2.43020162      24.58243212        1       1.00000000       0.00000000       0.00000000       0.00000000       0.00000000       0.00000000       0.00000000
H        2.80615550      -0.00000006      17.77172707        0       1.00000000       0.00000044       0.00000020       0.00000085      -0.00000096      -0.00000185      -0.00000053
H        0.00000002       0.00000007      17.77172655        0       1.00000000       0.00000022       0.00000003       0.00000072       0.00000076       0.00000085      -0.00000131
H        4.21916318       4.05018958      26.81113132        0       1.00000000      -0.00000046       0.00000002       0.00000043      -0.00000093      -0.00000124       0.00000042
H        4.20923257       2.43020121      17.77172710        0       1.00000000       0.00000105       0.00000081      -0.00000051      -0.00000063       0.00000077      -0.00000130
H        2.79622502       1.61998814      26.81113102        0       1.00000000       0.00000086       0.00000053      -0.00000048       0.00000050       0.00000067       0.00000093
H        1.40307747       2.43020154      17.77172635        0       1.00000000      -0.00000020       0.00000086      -0.00000024       0.00000085      -0.00000132       0.00000158
18
Lattice="5.612310241546866 0.0 0.0 0.0 4.860403243099165 0.0 0.0 0.0 44.58243212332868" Properties=species:S:1:pos:R:3:tags:I:1:masses:R:1:momenta:R:3:forces:R:3 KEmax=23.26679191048647 iter=119999 volume=1216.1236359717223 ns_energy=-11.636651374035127 last_walked_iter_clone=119099 energy=-11.636651374037857 stress="0.022580595515973884 2.7718991597266833e-09 4.198968887454046e-09 2.7718991597266833e-09 0.022694980510851767 -1.2719834489386377e-08 4.198968887454046e-09 -1.2719834489386377e-08 0.012369958360386938" pbc="T T F"
H        1.40307756       0.81006721      20.00000000        3       1.00000000       0.00000000       0.00000000       0.00000000       0.00000000       0.00000000       0.00000000
H        4.20923268       0.81006721      20.00000000        3       1.00000000       0.00000000       0.00000000       0.00000000       0.00000000       0.00000000       0.00000000
H        0.00000000       3.24026883      20.00000000        3       1.00000000       0.00000000       0.00000000       0.00000000       0.00000000       0.00000000       0.00000000
H        2.80615512       3.24026883      20.00000000        3       1.00000000       0.00000000       0.00000000       0.00000000       0.00000000       0.00000000       0.00000000
H        0.00000000       1.62013441      22.29121606        2       1.00000000       0.00000000       0.00000000       0.00000000       0.00000000       0.00000000       0.00000000
H        2.80615512       1.62013441      22.29121606        2       1.00000000       0.00000000       0.00000000       0.00000000       0.00000000       0.00000000       0.00000000
H        1.40307756       4.05033604      22.29121606        2       1.00000000       0.00000000       0.00000000       0.00000000       0.00000000       0.00000000       0.00000000
H        4.20923268       4.05033604      22.29121606        2       1.00000000       0.00000000       0.00000000       0.00000000       0.00000000       0.00000000       0.00000000
H        0.00000000       0.00000000      24.58243212        1       1.00000000       0.00000000       0.00000000       0.00000000       0.00000000       0.00000000       0.00000000
H        2.80615512       0.00000000      24.58243212        1       1.00000000       0.00000000       0.00000000       0.00000000       0.00000000       0.00000000       0.00000000
H        1.40307756       2.43020162      24.58243212        1       1.00000000       0.00000000       0.00000000       0.00000000       0.00000000       0.00000000       0.00000000
H        4.20923268       2.43020162      24.58243212        1       1.00000000       0.00000000       0.00000000       0.00000000       0.00000000       0.00000000       0.00000000
H        2.80615466       0.00000024      17.77172739        0       1.00000000       0.00000010      -0.00000056      -0.00000014      -0.00000096      -0.00000185      -0.00000053
H        5.61230958      -0.00000013      17.77172736        0       1.00000000       0.00000042       0.00000056      -0.00000031       0.00000076       0.00000085      -0.00000131
H        4.21916409       4.05018848      26.81113066        0       1.00000000       0.00000044       0.00000049      -0.00000100      -0.00000093      -0.00000124       0.00000042
H        4.20923231       2.43020194      17.77172664        0       1.00000000      -0.00000068       0.00000060      -0.00000043      -0.00000063       0.00000077      -0.00000130
H        2.79622381       1.61998728      26.81113002        0       1.00000000       0.00000033      -0.00000002      -0.00000171       0.00000050       0.00000067       0.00000093
H        1.40307717       2.43020143      17.77172697        0       1.00000000       0.00000092       0.00000044      -0.00000146       0.00000085      -0.00000132       0.00000158
18
Lattice="5.612310241546866 0.0 0.0 0.0 4.860403243099165 0.0 0.0 0.0 44.58243212332868" Properties=species:S:1:pos:R:3:tags:I:1:masses:R:1:momenta:R:3:forces:R:3 KEmax=23.26679191048647 iter=119999 volume=1216.1236359717223 ns_energy=-11.636651374034889 last_walked_iter_clone=118888 energy=-11.636651374037857 stress="0.022580595515973884 2.7718991597266833e-09 4.198968887454046e-09 2.7718991597266833e-09 0.022694980510851767 -1.2719834489386377e-08 4.198968887454046e-09 -1.2719834489386377e-08 0.012369958360386938" pbc="T T F"
H        1.40307756       0.81006721      20.00000000        3       1.00000000       0.00000000       0.00000000       0.00000000       0.00000000       0.00000000       0.00000000
H        4.20923268       0.81006721      20.00000000        3       1.00000000       0.00000000       0.00000000       0.00000000       0.00000000       0.00000000       0.00000000
H        0.00000000       3.24026883      20.00000000        3       1.00000000       0.00000000       0.00000000       0.00000000       0.00000000       0.00000000       0.00000000
H        2.80615512       3.24026883      20.00000000        3       1.00000000       0.00000000       0.00000000       0.00000000       0.00000000       0.00000000       0.00000000
H        0.00000000       1.62013441      22.29121606        2       1.00000000       0.00000000       0.00000000       0.00000000       0.00000000       0.00000000       0.00000000
H        2.80615512       1.62013441      22.29121606        2       1.00000000       0.00000000       0.00000000       0.00000000       0.00000000       0.00000000       0.00000000
H        1.40307756       4.05033604      22.29121606        2       1.00000000       0.00000000       0.00000000       0.00000000       0.00000000       0.00000000       0.00000000
H        4.20923268       4.05033604      22.29121606        2       1.00000000       0.00000000       0.00000000       0.00000000       0.00000000       0.00000000       0.00000000
H        0.00000000       0.00000000      24.58243212        1       1.00000000       0.00000000       0.00000000       0.00000000       0.00000000       0.00000000       0.00000000
H        2.80615512       0.00000000      24.58243212        1       1.00000000       0.00000000       0.00000000       0.00000000       0.00000000       0.00000000       0.00000000
H        1.40307756       2.43020162      24.58243212        1       1.00000000       0.00000000       0.00000000       0.00000000       0.00000000       0.00000000       0.00000000
H        4.20923268       2.43020162      24.58243212        1       1.00000000       0.00000000       0.00000000       0.00000000       0.00000000       0.00000000       0.00000000
H        2.80615502       0.00000011      17.77172711        0       1.00000000      -0.00000064      -0.00000051       0.00000016      -0.00000096      -0.00000185      -0.00000053
H        0.00000039       0.00000031      17.77172689        0       1.00000000       0.00000081       0.00000149      -0.00000011       0.00000076       0.00000085      -0.00000131
H        4.21916280       4.05018964      26.81112977        0       1.00000000       0.00000006       0.00000057      -0.00000069      -0.00000093      -0.00000124       0.00000042