18
Lattice="5.612310241546866 0.0 0.0 0.0 4.860403243099165 0.0 0.0 0.0 44.58243212332868" Properties=species:S:1:pos:R:3:tags:I:1:masses:R:1:momenta:R:3:forces:R:3 KEmax=23.26679191048647 iter=84019 volume=1216.1236359717223 ns_energy=-11.63665137385138 last_walked_iter_clone=83872 energy=-11.636651373904455 stress="0.022580635356619295 -4.577297284471776e-08 5.406016491849941e-08 -4.577297284471776e-08 0.022695069532586598 -1.241239043081094e-07 5.406016491849941e-08 -1.241239043081094e-07 0.012370158495176814" pbc="T T F"
H        1.40307756       0.81006721      20.00000000        3       1.00000000       0.00000000       0.00000000       0.00000000       0.00000000       0.00000000       0.00000000
H        4.20923268       0.81006721      20.00000000        3       1.00000000       0.00000000       0.00000000       0.00000000       0.00000000       0.00000000       0.00000000
H        0.00000000       3.24026883      20.00000000        3       1.00000000       0.00000000       0.00000000       0.00000000       0.00000000       0.00000000       0.00000000
H        2.80615512       3.24026883      20.00000000        3       1.00000000       0.00000000       0.00000000       0.00000000       0.00000000       0.00000000       0.00000000
H        0.00000000       1.62013441      22.29121606        2       1.00000000       0.00000000       0.00000000       0.00000000       0.00000000       0.00000000       0.00000000
H        2.80615512       1.62013441      22.29121606        2       1.00000000       0.00000000       0.00000000       0.00000000       0.00000000       0.00000000       0.00000000
H        1.40307756       4.05033604      22.29121606        2       1.00000000       0.00000000       0.00000000       0.00000000       0.00000000       0.00000000       0.00000000
H        4.20923268       4.05033604      22.29121606        2       1.00000000       0.00000000       0.00000000       0.00000000       0.00000000       0.00000000       0.00000000
H        0.00000000       0.00000000      24.58243212        1       1.00000000       0.00000000       0.00000000       0.00000000       0.00000000       0.00000000       0.00000000
H        2.80615512       0.00000000      24.58243212        1       1.00000000       0.00000000       0.00000000       0.00000000       0.00000000       0.00000000       0.00000000
H        1.40307756       2.43020162      24.58243212        1       1.00000000       0.00000000       0.00000000       0.00000000       0.00000000       0.00000000       0.00000000
H        4.20923268       2.43020162      24.58243212        1       1.00000000       0.00000000       0.00000000       0.00000000       0.00000000       0.00000000       0.00000000
H        2.80615258      -0.00000019      17.77172518        0       1.00000000      -0.00000702      -0.00000284      -0.00000439       0.00000480      -0.00001084       0.00000628
H       -0.00000326      -0.00000105      17.77172747        0       1.00000000      -0.00000261       0.00000128       0.00000639       0.00000013       0.00000380       0.00000034
H        4.21916298       4.05018966      26.81112793        0       1.00000000      -0.00000341       0.00000268      -0.00000312      -0.00000697       0.00000251      -0.00000011
H        4.20923086       2.43020169      17.77172449        0       1.00000000       0.00000104      -0.00000040       0.00000436      -0.00000313      -0.00000176       0.00001012
H        2.79622590       1.61999201      26.81113456        0       1.00000000      -0.00000157       0.00000411       0.00000456      -0.00000069       0.00000120       0.00000603
H        1.40307602       2.43020030      17.77172909        0       1.00000000      -0.00000066      -0.00000131       0.00000288      -0.00000349      -0.00000078       0.00000902
18
Lattice="5.612310241546866 0.0 0.0 0.0 4.860403243099165 0.0 0.0 0.0 44.58243212332868" Properties=species:S:1:pos:R:3:tags:I:1:masses:R:1:momenta:R:3:forces:R:3 KEmax=23.26679191048647 iter=84019 volume=1216.1236359717223 ns_energy=-11.636651373847931 last_walked_iter_clone=83969 energy=-11.636651373904455 stress="0.022580635356619295 -4.577297284471776e-08 5.406016491849941e-08 -4.577297284471776e-08 0.022695069532586598 -1.241239043081094e-07 5.406016491849941e-08 -1.241239043081094e-07 0.012370158495176814" pbc="T T F"
H        1.40307756       0.81006721      20.00000000        3       1.00000000       0.00000000       0.00000000       0.00000000       0.00000000       0.00000000       0.00000000
H        4.20923268       0.81006721      20.00000000        3       1.00000000       0.00000000       0.00000000       0.00000000       0.00000000       0.00000000       0.00000000
H        0.00000000       3.24026883      20.00000000        3       1.00000000       0.00000000       0.00000000       0.00000000       0.00000000       0.00000000       0.00000000
H        2.80615512       3.24026883      20.00000000        3       1.00000000       0.00000000       0.00000000       0.00000000       0.00000000       0.00000000       0.00000000
H        0.00000000       1.62013441      22.29121606        2       1.00000000       0.00000000       0.00000000       0.00000000       0.00000000       0.00000000       0.00000000
H        2.80615512       1.62013441      22.29121606        2       1.00000000       0.00000000       0.00000000       0.00000000       0.00000000       0.00000000       0.00000000
H        1.40307756       4.05033604      22.29121606        2       1.00000000       0.00000000       0.00000000       0.00000000       0.00000000       0.00000000       0.00000000
H        4.20923268       4.05033604      22.29121606        2       1.00000000       0.00000000       0.00000000       0.00000000       0.00000000       0.00000000       0.00000000
H        0.00000000       0.00000000      24.58243212        1       1.00000000       0.00000000       0.00000000       0.00000000       0.00000000       0.00000000       0.00000000
H        2.80615512       0.00000000      24.58243212        1       1.00000000       0.00000000       0.00000000       0.00000000       0.00000000       0.00000000       0.00000000
H        1.40307756       2.43020162      24.58243212        1       1.00000000       0.00000000       0.00000000       0.00000000       0.00000000       0.00000000       0.00000000
H        4.20923268       2.43020162      24.58243212        1       1.00000000       0.00000000       0.00000000       0.00000000       0.00000000       0.00000000       0.00000000
H        2.80615242       4.86040174      17.77172858        0       1.00000000      -0.00000250      -0.00000085       0.00000200       0.00000480      -0.00001084       0.00000628
H        0.00000207       4.86040047      17.77172749        0       1.00000000      -0.00000257      -0.00000306       0.00000138       0.00000013       0.00000380       0.00000034
H        4.21916703       4.05019033      26.81113408        0       1.00000000       0.00000138       0.00000276      -0.00000503      -0.00000697       0.00000251      -0.00000011
H        4.20923145       2.43020095      17.77172521        0       1.00000000       0.00000395      -0.00000105       0.00000696      -0.00000313      -0.00000176       0.00001012
H        2.79622432       1.61998623      26.81113008        0       1.00000000       0.00000155      -0.00000251       0.00000630      -0.00000069       0.00000120       0.00000603
H        1.40307649       2.43020250      17.77172790        0       1.00000000      -0.00000375      -0.00000382       0.00000359      -0.00000349      -0.00000078       0.00000902
18
Lattice="5.612310241546866 0.0 0.0 0.0 4.860403243099165 0.0 0.0 0.0 44.58243212332868" Properties=species:S:1:pos:R:3:tags:I:1:masses:R:1:momenta:R:3:forces:R:3 KEmax=23.26679191048647 iter=84019 volume=1216.1236359717223 ns_energy=-11.636651373844298 last_walked_iter_clone=83663 energy=-11.636651373904455 stress="0.022580635356619295 -4.577297284471776e-08 5.406016491849941e-08 -4.577297284471776e-08 0.022695069532586598 -1.241239043081094e-07 5.406016491849941e-08 -1.241239043081094e-07 0.012370158495176814" pbc="T T F"
H        1.40307756       0.81006721      20.00000000        3       1.00000000       0.00000000       0.00000000       0.00000000       0.00000000       0.00000000       0.00000000
H        4.20923268       0.81006721      20.00000000        3       1.00000000       0.00000000       0.00000000       0.00000000       0.00000000       0.00000000       0.00000000
H        0.00000000       3.24026883      20.00000000        3       1.00000000       0.00000000       0.00000000       0.00000000       0.00000000       0.00000000       0.00000000
H        2.80615512       3.24026883      20.00000000        3       1.00000000       0.00000000       0.00000000       0.00000000       0.00000000       0.00000000       0.00000000
H        0.00000000       1.62013441      22.29121606        2       1.00000000       0.00000000       0.00000000       0.00000000       0.00000000       0.00000000       0.00000000
H        2.80615512       1.62013441      22.29121606        2       1.00000000       0.00000000       0.00000000       0.00000000       0.00000000       0.00000000       0.00000000
H        1.40307756       4.05033604      22.29121606        2       1.00000000       0.00000000       0.00000000       0.00000000       0.00000000       0.00000000       0.00000000
H        4.20923268       4.05033604      22.29121606        2       1.00000000       0.00000000       0.00000000       0.00000000       0.00000000       0.00000000       0.00000000
H        0.00000000       0.00000000      24.58243212        1       1.00000000       0.00000000       0.00000000       0.00000000       0.00000000       0.00000000       0.00000000
H        2.80615512       0.00000000      24.58243212        1       1.00000000       0.00000000       0.00000000       0.00000000       0.00000000       0.00000000       0.00000000
H        1.40307756       2.43020162      24.58243212        1       1.00000000       0.00000000       0.00000000       0.00000000       0.00000000       0.00000000       0.00000000
H        4.20923268       2.43020162      24.58243212        1       1.00000000       0.00000000       0.00000000       0.00000000       0.00000000       0.00000000       0.00000000
H        2.80615439      -0.00000012      17.77172645        0       1.00000000      -0.00000158       0.00000274      -0.00000010       0.00000480      -0.00001084       0.00000628
H        0.00000188       4.86040529      17.77172858        0       1.00000000       0.00000042      -0.00000471      -0.00000446       0.00000013       0.00000380       0.00000034
H        4.21916327       4.05018344      26.81113085        0       1.00000000      -0.00000143      -0.00000040       0.00000094      -0.00000697       0.00000251      -0.00000011
H        4.20923118       2.43020079      17.77173230        0       1.00000000      -0.00000546       0.00000195      -0.00000203      -0.00000313      -0.00000176       0.00001012
H        2.79622153       1.61997918      26.81112992        0       1.00000000      -0.00000380       0.00000061      -0.00000212      -0.00000069       0.00000120       0.00000603
H        1.40307690       2.43020430      17.77172300        0       1.00000000      -0.00000174       0.00000226      -0.00000432      -0.00000349      -0.00000078       0.00000902
18
Lattice="5.612310241546866 0.0 0.0 0.0 4.860403243099165 0.0 0.0 0.0 44.58243212332868" Properties=species:S:1:pos:R:3:tags:I:1:masses:R:1:momenta:R:3:forces:R:3 KEmax=23.26679191048647 iter=84019 volume=1216.1236359717223 ns_energy=-11.636651373843291 last_walked_iter_clone=83940 energy=-11.636651373904455 stress="0.022580635356619295 -4.577297284471776e-08 5.406016491849941e-08 -4.577297284471776e-08 0.022695069532586598 -1.241239043081094e-07 5.406016491849941e-08 -1.241239043081094e-07 0.012370158495176814" pbc="T T F"
H        1.40307756       0.81006721      20.00000000        3       1.00000000       0.00000000       0.00000000       0.00000000       0.00000000       0.00000000       0.00000000
H        4.20923268       0.81006721      20.00000000        3       1.00000000       0.00000000       0.00000000       0.00000000       0.00000000       0.00000000       0.00000000
H        0.00000000       3.24026883      20.00000000        3       1.00000000       0.00000000       0.00000000       0.00000000       0.00000000       0.00000000       0.00000000
H        2.80615512       3.24026883      20.00000000        3       1.00000000       0.00000000       0.00000000       0.00000000       0.00000000       0.00000000       0.00000000
H        0.00000000       1.62013441      22.29121606        2       1.00000000       0.00000000       0.00000000       0.00000000       0.00000000       0.00000000       0.00000000
H        2.80615512       1.62013441      22.29121606        2       1.00000000       0.00000000       0.00000000       0.00000000       0.00000000       0.00000000       0.00000000
H        1.40307756       4.05033604      22.29121606        2       1.00000000       0.00000000       0.00000000       0.00000000       0.00000000       0.00000000       0.00000000
H        4.20923268       4.05033604      22.29121606        2       1.00000000       0.00000000       0.00000000       0.00000000       0.00000000       0.00000000       0.00000000
H        0.00000000       0.00000000      24.58243212        1       1.00000000       0.00000000       0.00000000       0.00000000       0.00000000       0.00000000       0.00000000
H        2.80615512       0.00000000      24.58243212        1       1.00000000       0.00000000       0.00000000       0.00000000       0.00000000       0.00000000       0.00000000
H        1.40307756       2.43020162      24.58243212        1       1.00000000       0.00000000       0.00000000       0.00000000       0.00000000       0.00000000       0.00000000
H        4.20923268       2.43020162      24.58243212        1       1.00000000       0.00000000       0.00000000       0.00000000       0.00000000       0.00000000       0.00000000
H        2.80615123       0.00000422      17.77172710        0       1.00000000      -0.00000057      -0.00000526       0.00000540       0.00000480      -0.00001084       0.00000628
H       -0.00000364       4.86040827      17.77172660        0       1.00000000      -0.00000204       0.00000707       0.00000205       0.00000013       0.00000380       0.00000034
H        4.21916618       4.05019294      26.81112856        0       1.00000000       0.00000016      -0.00000184       0.00000257      -0.00000697       0.00000251      -0.00000011
H        4.20922994       2.43020629      17.77172881        0       1.00000000       0.00000145       0.00000029      -0.00000737      -0.00000313      -0.00000176       0.00001012
H        2.79623210       1.61999308      26.81112929        0       1.00000000      -0.00000205      -0.00000262      -0.00000348      -0.00000069       0.00000120       0.00000603
H        1.40307448       2.43020541      17.77172748        0       1.00000000      -0.00000230      -0.00000121       0.00000029      -0.00000349      -0.00000078       0.00000902
18
Lattice="5.612310241546866 0.0 0.0 0.0 4.860403243099165 0.0 0.0 0.0 44.58243212332868" Properties=species:S:1:pos:R:3:tags:I:1:masses:R:1:momenta:R:3:forces:R:3 KEmax=23.26679191048647 iter=84019 volume=1216.1236359717223 ns_energy=-11.636651373847426 last_walked_iter_clone=84002 energy=-11.636651373904455 stress="0.022580635356619295 -4.577297284471776e-08 5.406016491849941e-08 -4.577297284471776e-08 0.022695069532586598 -1.241239043081094e-07 5.406016491849941e-08 -1.241239043081094e-07 0.012370158495176814" pbc="T T F"
H        1.40307756       0.81006721      20.00000000        3       1.00000000       0.00000000       0.00000000       0.00000000       0.00000000       0.00000000       0.00000000
H        4.20923268       0.81006721      20.00000000        3       1.00000000       0.00000000       0.00000000       0.00000000       0.00000000       0.00000000       0.00000000
H        0.00000000       3.24026883      20.00000000        3       1.00000000       0.00000000       0.00000000       0.00000000       0.00000000       0.00000000       0.00000000
H        2.80615512       3.24026883      20.00000000        3       1.00000000       0.00000000       0.00000000       0.00000000       0.00000000       0.00000000       0.00000000
H        0.00000000       1.62013441      22.29121606        2       1.00000000       0.00000000       0.00000000       0.00000000       0.00000000       0.00000000       0.00000000
H        2.80615512       1.62013441      22.29121606        2       1.00000000       0.00000000       0.00000000       0.00000000       0.00000000       0.00000000       0.00000000
H        1.40307756       4.05033604      22.29121606        2       1.00000000       0.00000000       0.00000000       0.00000000       0.00000000       0.00000000       0.00000000
H        4.20923268       4.05033604      22.29121606        2       1.00000000       0.00000000       0.00000000       0.00000000       0.00000000       0.00000000       0.00000000
H        0.00000000       0.00000000      24.58243212        1       1.00000000       0.00000000       0.00000000       0.00000000       0.00000000       0.00000000       0.00000000
H        2.80615512       0.00000000      24.58243212        1       1.00000000       0.00000000       0.00000000       0.00000000       0.00000000       0.00000000       0.00000000
H        1.40307756       2.43020162      24.58243212        1       1.00000000       0.00000000       0.00000000       0.00000000       0.00000000       0.00000000       0.00000000
H        4.20923268       2.43020162      24.58243212        1       1.00000000       0.00000000       0.00000000       0.00000000       0.00000000       0.00000000       0.00000000
H        2.80615448       4.86041037      17.77172627        0       1.00000000      -0.00000100      -0.00000085      -0.00000355       0.00000480      -0.00001084       0.00000628
H        5.61230824       4.86040759      17.77172803        0       1.00000000       0.00000394      -0.00000096      -0.00000206       0.00000013       0.00000380       0.00000034
H        4.21916056       4.05019158      26.81113261        0       1.00000000       0.00000143      -0.00000665      -0.00000036      -0.00000697       0.00000251      -0.00000011
H        4.20923203       2.43020605      17.77172738        0       1.00000000      -0.00000473       0.00000401      -0.00000193      -0.00000313      -0.00000176       0.00001012
H        2.79622340       1.61999113      26.81112953        0       1.00000000       0.00000093       0.00000075      -0.00000463      -0.00000069       0.00000120       0.00000603
H        1.40308000       2.43020434      17.77172592        0       1.00000000       0.00000124      -0.00000458       0.00000640      -0.00000349      -0.00000078       0.00000902
18
Lattice="5.612310241546866 0.0 0.0 0.0 4.860403243099165 0.0 0.0 0.0 44.58243212332868" Properties=species:S:1:pos:R:3:tags:I:1:masses:R:1:momenta:R:3:forces:R:3 KEmax=23.26679191048647 iter=84019 volume=1216.1236359717223 ns_energy=-11.636651373843707 last_walked_iter_clone=83847 energy=-11.636651373904455 stress="0.022580635356619295 -4.577297284471776e-08 5.406016491849941e-08 -4.577297284471776e-08 0.022695069532586598 -1.241239043081094e-07 5.406016491849941e-08 -1.241239043081094e-07 0.012370158495176814" pbc="T T F"
H        1.40307756       0.81006721      20.00000000        3       1.00000000       0.00000000       0.00000000       0.00000000       0.00000000       0.00000000       0.00000000
H        4.20923268       0.81006721      20.00000000        3       1.00000000       0.00000000       0.00000000       0.00000000       0.00000000       0.00000000       0.00000000
H        0.00000000       3.24026883      20.00000000        3       1.00000000       0.00000000       0.00000000       0.00000000       0.00000000       0.00000000       0.00000000
H        2.80615512       3.24026883      20.00000000        3       1.00000000       0.00000000       0.00000000       0.00000000       0.00000000       0.00000000       0.00000000
H        0.00000000       1.62013441      22.29121606        2       1.00000000       0.00000000       0.00000000       0.00000000       0.00000000       0.00000000       0.00000000
H        2.80615512       1.62013441      22.29121606        2       1.00000000       0.00000000       0.00000000       0.00000000       0.00000000       0.00000000       0.00000000
H        1.40307756       4.05033604      22.29121606        2       1.00000000       0.00000000       0.00000000       0.00000000       0.00000000       0.00000000       0.00000000
H        4.20923268       4.05033604      22.29121606        2       1.00000000       0.00000000       0.00000000       0.00000000       0.00000000       0.00000000       0.00000000
H        0.00000000       0.00000000      24.58243212        1       1.00000000       0.00000000       0.00000000       0.00000000       0.00000000       0.00000000       0.00000000
H        2.80615512       0.00000000      24.58243212        1       1.00000000       0.00000000       0.00000000       0.00000000       0.00000000       0.00000000       0.00000000
H        1.40307756       2.43020162      24.58243212        1       1.00000000       0.00000000       0.00000000       0.00000000       0.00000000       0.00000000       0.00000000
H        4.20923268       2.43020162      24.58243212        1       1.00000000       0.00000000       0.00000000       0.00000000       0.00000000       0.00000000       0.00000000
H        2.80615657      -0.00000341      17.77172724        0       1.00000000       0.00000004      -0.00000105      -0.00000100       0.00000480      -0.00001084       0.00000628
H        0.00000000      -0.00000116      17.77172394        0       1.00000000      -0.00000396      -0.00000036       0.00000227       0.00000013       0.00000380       0.00000034
H        4.21916698       4.05019489      26.81113208        0       1.00000000       0.00000044       0.00000046      -0.00000057      -0.00000697       0.00000251      -0.00000011
H        4.20922960       2.43020036      17.77172286        0       1.00000000      -0.00000119       0.00000187       0.00000947      -0.00000313      -0.00000176       0.00001012
H        2.79622622       1.61999330      26.81112881        0       1.00000000      -0.00000157       0.00000350      -0.00000056      -0.00000069       0.00000120       0.00000603
H        1.40307525       2.43020120      17.77172449        0       1.00000000      -0.00000243      -0.00000339      -0.00000553      -0.00000349      -0.00000078       0.00000902
18
Lattice="5.612310241546866 0.0 0.0 0.0 4.860403243099165 0.0 0.0 0.0 44.58243212332868" Properties=species:S:1:pos:R:3:tags:I:1:masses:R:1:momenta:R:3:forces:R:3 KEmax=23.26679191048647 iter=84019 volume=1216.1236359717223 ns_energy=-11.636651373846506 last_walked_iter_clone=83899 energy=-11.636651373904455 stress="0.022580635356619295 -4.577297284471776e-08 5.406016491849941e-08 -4.577297284471776e-08 0.022695069532586598 -1.241239043081094e-07 5.406016491849941e-08 -1.241239043081094e-07 0.012370158495176814" pbc="T T F"
H        1.40307756       0.81006721      20.00000000        3       1.00000000       0.00000000       0.00000000       0.00000000       0.00000000       0.00000000       0.00000000
H        4.20923268       0.81006721      20.00000000        3       1.00000000       0.00000000       0.00000000       0.00000000       0.00000000       0.00000000       0.00000000
H        0.00000000       3.24026883      20.00000000        3       1.00000000       0.00000000       0.00000000       0.00000000       0.00000000       0.00000000       0.00000000
H        2.80615512       3.24026883      20.00000000        3       1.00000000       0.00000000       0.00000000       0.00000000       0.00000000       0.00000000       0.00000000
H        0.00000000       1.62013441      22.29121606        2       1.00000000       0.00000000       0.00000000       0.00000000       0.00000000       0.00000000       0.00000000
H        2.80615512       1.62013441      22.29121606        2       1.00000000       0.00000000       0.00000000       0.00000000       0.00000000       0.00000000       0.00000000
H        1.40307756       4.05033604      22.29121606        2       1.00000000       0.00000000       0.00000000       0.00000000       0.00000000       0.00000000       0.00000000
H        4.20923268       4.05033604      22.29121606        2       1.00000000       0.00000000       0.00000000       0.00000000       0.00000000       0.00000000       0.00000000
H        0.00000000       0.00000000      24.58243212        1       1.00000000       0.00000000       0.00000000       0.00000000       0.00000000       0.00000000       0.00000000
H        2.80615512       0.00000000      24.58243212        1       1.00000000       0.00000000       0.00000000       0.00000000       0.00000000       0.00000000       0.00000000
H        1.40307756       2.43020162      24.58243212        1       1.00000000       0.00000000       0.00000000       0.00000000       0.00000000       0.00000000       0.00000000
H        4.20923268       2.43020162      24.58243212        1       1.00000000       0.00000000       0.00000000       0.00000000       0.00000000       0.00000000       0.00000000
H        2.80615470       0.00000225      17.77172663        0       1.00000000      -0.00000133       0.00000091      -0.00000171       0.00000480      -0.00001084       0.00000628
H        5.61230892      -0.00000056      17.77172637        0       1.00000000      -0.00000543      -0.00000186       0.00000231       0.00000013       0.00000380       0.00000034
H        4.21916806       4.05019164      26.81112741        0       1.00000000      -0.00000186      -0.00000357      -0.00000177      -0.00000697       0.00000251      -0.00000011
H        4.20923166       2.43019878      17.77172433        0       1.00000000       0.00000062       0.00000147      -0.00000404      -0.00000313      -0.00000176       0.00001012
H        2.79623026       1.61999008      26.81113513        0       1.00000000      -0.00000069       0.00000182       0.00000507      -0.00000069       0.00000120       0.00000603
H        1.40307751       2.43020067      17.77172271        0       1.00000000       0.00000345      -0.00000003       0.00000144      -0.00000349      -0.00000078       0.00000902
18
Lattice="5.612310241546866 0.0 0.0 0.0 4.860403243099165 0.0 0.0 0.0 44.58243212332868" Properties=species:S:1:pos:R:3:tags:I:1:masses:R:1:momenta:R:3:forces:R:3 KEmax=23.26679191048647 iter=84019 volume=1216.1236359717223 ns_energy=-11.63665137384679 last_walked_iter_clone=83714 energy=-11.636651373904455 stress="0.022580635356619295 -4.577297284471776e-08 5.406016491849941e-08 -4.577297284471776e-08 0.022695069532586598 -1.241239043081094e-07 5.406016491849941e-08 -1.241239043081094e-07 0.012370158495176814" pbc="T T F"
H        1.40307756       0.81006721      20.00000000        3       1.00000000       0.00000000       0.00000000       0.00000000       0.00000000       0.00000000       0.00000000
H        4.20923268       0.81006721      20.00000000        3       1.00000000       0.00000000       0.00000000       0.00000000       0.00000000       0.00000000       0.00000000
H        0.00000000       3.24026883      20.00000000        3       1.00000000       0.00000000       0.00000000       0.00000000       0.00000000       0.00000000       0.00000000
H        2.80615512       3.24026883      20.00000000        3       1.00000000       0.00000000       0.00000000       0.00000000       0.00000000       0.00000000       0.00000000
H        0.00000000       1.62013441      22.29121606        2       1.00000000       0.00000000       0.00000000       0.00000000       0.00000000       0.00000000       0.00000000
H        2.80615512       1.62013441      22.29121606        2       1.00000000       0.00000000       0.00000000       0.00000000       0.00000000       0.00000000       0.00000000
H        1.40307756       4.05033604      22.29121606        2       1.00000000       0.00000000       0.00000000       0.00000000       0.00000000       0.00000000       0.00000000
H        4.20923268       4.05033604      22.29121606        2       1.00000000       0.00000000       0.00000000       0.00000000       0.00000000       0.00000000       0.00000000
H        0.00000000       0.00000000      24.58243212        1       1.00000000       0.00000000       0.00000000       0.00000000       0.00000000       0.00000000       0.00000000
H        2.80615512       0.00000000      24.58243212        1       1.00000000       0.00000000       0.00000000       0.00000000       0.00000000       0.00000000       0.00000000
H        1.40307756       2.43020162      24.58243212        1       1.00000000       0.00000000       0.00000000       0.00000000       0.00000000       0.00000000       0.00000000
H        4.20923268       2.43020162      24.58243212        1       1.00000000       0.00000000       0.00000000       0.00000000       0.00000000       0.00000000       0.00000000
H        2.80615930      -0.00000221      17.77172826        0       1.00000000       0.00000040      -0.00000054       0.00000408       0.00000480      -0.00001084       0.00000628
H        5.61231465      -0.00000036      17.77173058        0       1.00000000      -0.00000383      -0.00000021      -0.00000258       0.00000013       0.00000380       0.00000034
H        4.21916176       4.05019210      26.81112926        0       1.00000000      -0.00000090       0.00000093      -0.00000182      -0.00000697       0.00000251      -0.00000011