50
Lattice="11.224620483093732 0.0 0.0 0.0 9.72080648619833 0.0 0.0 0.0 44.58243212332868" Properties=species:S:1:pos:R:3:tags:I:1:masses:R:1:momenta:R:3:forces:R:3 KEmax=64.62997752912909 iter=29057 volume=4864.494543886885 set_wall=T ns_energy=-30.50302288965189 last_walked_iter_clone=29045 energy=-30.50302292796142 stress="0.019770332560315226 3.481631697580881e-07 7.906346557534355e-08 3.481631697580881e-07 0.01977555953776638 3.117290947039126e-07 7.906346557534355e-08 3.117290947039126e-07 0.012966225085553047" pbc="T T F"
H        1.40307756       0.81006721      20.00000000        3       1.00000000       0.00000000       0.00000000       0.00000000       0.00000000       0.00000000       0.00000000
H        4.20923268       0.81006721      20.00000000        3       1.00000000       0.00000000       0.00000000       0.00000000       0.00000000       0.00000000       0.00000000
H        7.01538780       0.81006721      20.00000000        3       1.00000000       0.00000000       0.00000000       0.00000000       0.00000000       0.00000000       0.00000000
H        9.82154292       0.81006721      20.00000000        3       1.00000000       0.00000000       0.00000000       0.00000000       0.00000000       0.00000000       0.00000000
H        0.00000000       3.24026883      20.00000000        3       1.00000000       0.00000000       0.00000000       0.00000000       0.00000000       0.00000000       0.00000000
H        2.80615512       3.24026883      20.00000000        3       1.00000000       0.00000000       0.00000000       0.00000000       0.00000000       0.00000000       0.00000000
H        5.61231024       3.24026883      20.00000000        3       1.00000000       0.00000000       0.00000000       0.00000000       0.00000000       0.00000000       0.00000000
H        8.41846536       3.24026883      20.00000000        3       1.00000000       0.00000000       0.00000000       0.00000000       0.00000000       0.00000000       0.00000000
H        1.40307756       5.67047045      20.00000000        3       1.00000000       0.00000000       0.00000000       0.00000000       0.00000000       0.00000000       0.00000000
H        4.20923268       5.67047045      20.00000000        3       1.00000000       0.00000000       0.00000000       0.00000000       0.00000000       0.00000000       0.00000000
H        7.01538780       5.67047045      20.00000000        3       1.00000000       0.00000000       0.00000000       0.00000000       0.00000000       0.00000000       0.00000000
H        9.82154292       5.67047045      20.00000000        3       1.00000000       0.00000000       0.00000000       0.00000000       0.00000000       0.00000000       0.00000000
H        0.00000000       8.10067207      20.00000000        3       1.00000000       0.00000000       0.00000000       0.00000000       0.00000000       0.00000000       0.00000000
H        2.80615512       8.10067207      20.00000000        3       1.00000000       0.00000000       0.00000000       0.00000000       0.00000000       0.00000000       0.00000000
H        5.61231024       8.10067207      20.00000000        3       1.00000000       0.00000000       0.00000000       0.00000000       0.00000000       0.00000000       0.00000000
H        8.41846536       8.10067207      20.00000000        3       1.00000000       0.00000000       0.00000000       0.00000000       0.00000000       0.00000000       0.00000000
H        0.00000000       1.62013441      22.29121606        2       1.00000000       0.00000000       0.00000000       0.00000000       0.00000000       0.00000000       0.00000000
H        2.80615512       1.62013441      22.29121606        2       1.00000000       0.00000000       0.00000000       0.00000000       0.00000000       0.00000000       0.00000000
H        5.61231024       1.62013441      22.29121606        2       1.00000000       0.00000000       0.00000000       0.00000000       0.00000000       0.00000000       0.00000000
H        8.41846536       1.62013441      22.29121606        2       1.00000000       0.00000000       0.00000000       0.00000000       0.00000000       0.00000000       0.00000000
H        1.40307756       4.05033604      22.29121606        2       1.00000000       0.00000000       0.00000000       0.00000000       0.00000000       0.00000000       0.00000000
H        4.20923268       4.05033604      22.29121606        2       1.00000000       0.00000000       0.00000000       0.00000000       0.00000000       0.00000000       0.00000000
H        7.01538780       4.05033604      22.29121606        2       1.00000000       0.00000000       0.00000000       0.00000000       0.00000000       0.00000000       0.00000000
H        9.82154292       4.05033604      22.29121606        2       1.00000000       0.00000000       0.00000000       0.00000000       0.00000000       0.00000000       0.00000000
H        0.00000000       6.48053766      22.29121606        2       1.00000000       0.00000000       0.00000000       0.00000000       0.00000000       0.00000000       0.00000000
H        2.80615512       6.48053766      22.29121606        2       1.00000000       0.00000000       0.00000000       0.00000000       0.00000000       0.00000000       0.00000000
H        5.61231024       6.48053766      22.29121606        2       1.00000000       0.00000000       0.00000000       0.00000000       0.00000000       0.00000000       0.00000000
H        8.41846536       6.48053766      22.29121606        2       1.00000000       0.00000000       0.00000000       0.00000000       0.00000000       0.00000000       0.00000000
H        1.40307756       8.91073928      22.29121606        2       1.00000000       0.00000000       0.00000000       0.00000000       0.00000000       0.00000000       0.00000000
H        4.20923268       8.91073928      22.29121606        2       1.00000000       0.00000000       0.00000000       0.00000000       0.00000000       0.00000000       0.00000000
H        7.01538780       8.91073928      22.29121606        2       1.00000000       0.00000000       0.00000000       0.00000000       0.00000000       0.00000000       0.00000000
H        9.82154292       8.91073928      22.29121606        2       1.00000000       0.00000000       0.00000000       0.00000000       0.00000000       0.00000000       0.00000000
H        0.00000000       0.00000000      24.58243212        1       1.00000000       0.00000000       0.00000000       0.00000000       0.00000000       0.00000000       0.00000000
H        2.80615512       0.00000000      24.58243212        1       1.00000000       0.00000000       0.00000000       0.00000000       0.00000000       0.00000000       0.00000000
H        5.61231024       0.00000000      24.58243212        1       1.00000000       0.00000000       0.00000000       0.00000000       0.00000000       0.00000000       0.00000000
H        8.41846536       0.00000000      24.58243212        1       1.00000000       0.00000000       0.00000000       0.00000000       0.00000000       0.00000000       0.00000000
H        1.40307756       2.43020162      24.58243212        1       1.00000000       0.00000000       0.00000000       0.00000000       0.00000000       0.00000000       0.00000000
H        4.20923268       2.43020162      24.58243212        1       1.00000000       0.00000000       0.00000000       0.00000000       0.00000000       0.00000000       0.00000000
H        7.01538780       2.43020162      24.58243212        1       1.00000000       0.00000000       0.00000000       0.00000000       0.00000000       0.00000000       0.00000000
H        9.82154292       2.43020162      24.58243212        1       1.00000000       0.00000000       0.00000000       0.00000000       0.00000000       0.00000000       0.00000000
H        0.00000000       4.86040324      24.58243212        1       1.00000000       0.00000000       0.00000000       0.00000000       0.00000000       0.00000000       0.00000000
H        2.80615512       4.86040324      24.58243212        1       1.00000000       0.00000000       0.00000000       0.00000000       0.00000000       0.00000000       0.00000000
H        5.61231024       4.86040324      24.58243212        1       1.00000000       0.00000000       0.00000000       0.00000000       0.00000000       0.00000000       0.00000000
H        8.41846536       4.86040324      24.58243212        1       1.00000000       0.00000000       0.00000000       0.00000000       0.00000000       0.00000000       0.00000000
H        1.40307756       7.29060486      24.58243212        1       1.00000000       0.00000000       0.00000000       0.00000000       0.00000000       0.00000000       0.00000000
H        4.20923268       7.29060486      24.58243212        1       1.00000000       0.00000000       0.00000000       0.00000000       0.00000000       0.00000000       0.00000000
H        7.01538780       7.29060486      24.58243212        1       1.00000000       0.00000000       0.00000000       0.00000000       0.00000000       0.00000000       0.00000000
H        9.82154292       7.29060486      24.58243212        1       1.00000000       0.00000000       0.00000000       0.00000000       0.00000000       0.00000000       0.00000000
H        7.01572067       4.05068054      26.81095195        0       1.00000000      -0.00015279       0.00002966       0.00010297      -0.00004085      -0.00010641       0.00014220
H        8.41823673       1.61974796      26.81111873        0       1.00000000      -0.00006791      -0.00003090       0.00008352       0.00001451       0.00000256       0.00009403
50
Lattice="11.224620483093732 0.0 0.0 0.0 9.72080648619833 0.0 0.0 0.0 44.58243212332868" Properties=species:S:1:pos:R:3:tags:I:1:masses:R:1:momenta:R:3:forces:R:3 KEmax=64.62997752912909 iter=29057 volume=4864.494543886885 set_wall=T ns_energy=-30.503022889785157 last_walked_iter_clone=29032 energy=-30.50302292796142 stress="0.019770332560315226 3.481631697580881e-07 7.906346557534355e-08 3.481631697580881e-07 0.01977555953776638 3.117290947039126e-07 7.906346557534355e-08 3.117290947039126e-07 0.012966225085553047" pbc="T T F"
H        1.40307756       0.81006721      20.00000000        3       1.00000000       0.00000000       0.00000000       0.00000000       0.00000000       0.00000000       0.00000000
H        4.20923268       0.81006721      20.00000000        3       1.00000000       0.00000000       0.00000000       0.00000000       0.00000000       0.00000000       0.00000000
H        7.01538780       0.81006721      20.00000000        3       1.00000000       0.00000000       0.00000000       0.00000000       0.00000000       0.00000000       0.00000000
H        9.82154292       0.81006721      20.00000000        3       1.00000000       0.00000000       0.00000000       0.00000000       0.00000000       0.00000000       0.00000000
H        0.00000000       3.24026883      20.00000000        3       1.00000000       0.00000000       0.00000000       0.00000000       0.00000000       0.00000000       0.00000000
H        2.80615512       3.24026883      20.00000000        3       1.00000000       0.00000000       0.00000000       0.00000000       0.00000000       0.00000000       0.00000000
H        5.61231024       3.24026883      20.00000000        3       1.00000000       0.00000000       0.00000000       0.00000000       0.00000000       0.00000000       0.00000000
H        8.41846536       3.24026883      20.00000000        3       1.00000000       0.00000000       0.00000000       0.00000000       0.00000000       0.00000000       0.00000000
H        1.40307756       5.67047045      20.00000000        3       1.00000000       0.00000000       0.00000000       0.00000000       0.00000000       0.00000000       0.00000000
H        4.20923268       5.67047045      20.00000000        3       1.00000000       0.00000000       0.00000000       0.00000000       0.00000000       0.00000000       0.00000000
H        7.01538780       5.67047045      20.00000000        3       1.00000000       0.00000000       0.00000000       0.00000000       0.00000000       0.00000000       0.00000000
H        9.82154292       5.67047045      20.00000000        3       1.00000000       0.00000000       0.00000000       0.00000000       0.00000000       0.00000000       0.00000000
H        0.00000000       8.10067207      20.00000000        3       1.00000000       0.00000000       0.00000000       0.00000000       0.00000000       0.00000000       0.00000000
H        2.80615512       8.10067207      20.00000000        3       1.00000000       0.00000000       0.00000000       0.00000000       0.00000000       0.00000000       0.00000000
H        5.61231024       8.10067207      20.00000000        3       1.00000000       0.00000000       0.00000000       0.00000000       0.00000000       0.00000000       0.00000000
H        8.41846536       8.10067207      20.00000000        3       1.00000000       0.00000000       0.00000000       0.00000000       0.00000000       0.00000000       0.00000000
H        0.00000000       1.62013441      22.29121606        2       1.00000000       0.00000000       0.00000000       0.00000000       0.00000000       0.00000000       0.00000000
H        2.80615512       1.62013441      22.29121606        2       1.00000000       0.00000000       0.00000000       0.00000000       0.00000000       0.00000000       0.00000000
H        5.61231024       1.62013441      22.29121606        2       1.00000000       0.00000000       0.00000000       0.00000000       0.00000000       0.00000000       0.00000000
H        8.41846536       1.62013441      22.29121606        2       1.00000000       0.00000000       0.00000000       0.00000000       0.00000000       0.00000000       0.00000000
H        1.40307756       4.05033604      22.29121606        2       1.00000000       0.00000000       0.00000000       0.00000000       0.00000000       0.00000000       0.00000000
H        4.20923268       4.05033604      22.29121606        2       1.00000000       0.00000000       0.00000000       0.00000000       0.00000000       0.00000000       0.00000000
H        7.01538780       4.05033604      22.29121606        2       1.00000000       0.00000000       0.00000000       0.00000000       0.00000000       0.00000000       0.00000000
H        9.82154292       4.05033604      22.29121606        2       1.00000000       0.00000000       0.00000000       0.00000000       0.00000000       0.00000000       0.00000000
H        0.00000000       6.48053766      22.29121606        2       1.00000000       0.00000000       0.00000000       0.00000000       0.00000000       0.00000000       0.00000000
H        2.80615512       6.48053766      22.29121606        2       1.00000000       0.00000000       0.00000000       0.00000000       0.00000000       0.00000000       0.00000000
H        5.61231024       6.48053766      22.29121606        2       1.00000000       0.00000000       0.00000000       0.00000000       0.00000000       0.00000000       0.00000000
H        8.41846536       6.48053766      22.29121606        2       1.00000000       0.00000000       0.00000000       0.00000000       0.00000000       0.00000000       0.00000000
H        1.40307756       8.91073928      22.29121606        2       1.00000000       0.00000000       0.00000000       0.00000000       0.00000000       0.00000000       0.00000000
H        4.20923268       8.91073928      22.29121606        2       1.00000000       0.00000000       0.00000000       0.00000000       0.00000000       0.00000000       0.00000000
H        7.01538780       8.91073928      22.29121606        2       1.00000000       0.00000000       0.00000000       0.00000000       0.00000000       0.00000000       0.00000000
H        9.82154292       8.91073928      22.29121606        2       1.00000000       0.00000000       0.00000000       0.00000000       0.00000000       0.00000000       0.00000000
H        0.00000000       0.00000000      24.58243212        1       1.00000000       0.00000000       0.00000000       0.00000000       0.00000000       0.00000000       0.00000000
H        2.80615512       0.00000000      24.58243212        1       1.00000000       0.00000000       0.00000000       0.00000000       0.00000000       0.00000000       0.00000000
H        5.61231024       0.00000000      24.58243212        1       1.00000000       0.00000000       0.00000000       0.00000000       0.00000000       0.00000000       0.00000000
H        8.41846536       0.00000000      24.58243212        1       1.00000000       0.00000000       0.00000000       0.00000000       0.00000000       0.00000000       0.00000000
H        1.40307756       2.43020162      24.58243212        1       1.00000000       0.00000000       0.00000000       0.00000000       0.00000000       0.00000000       0.00000000
H        4.20923268       2.43020162      24.58243212        1       1.00000000       0.00000000       0.00000000       0.00000000       0.00000000       0.00000000       0.00000000
H        7.01538780       2.43020162      24.58243212        1       1.00000000       0.00000000       0.00000000       0.00000000       0.00000000       0.00000000       0.00000000
H        9.82154292       2.43020162      24.58243212        1       1.00000000       0.00000000       0.00000000       0.00000000       0.00000000       0.00000000       0.00000000
H        0.00000000       4.86040324      24.58243212        1       1.00000000       0.00000000       0.00000000       0.00000000       0.00000000       0.00000000       0.00000000
H        2.80615512       4.86040324      24.58243212        1       1.00000000       0.00000000       0.00000000       0.00000000       0.00000000       0.00000000       0.00000000
H        5.61231024       4.86040324      24.58243212        1       1.00000000       0.00000000       0.00000000       0.00000000       0.00000000       0.00000000       0.00000000
H        8.41846536       4.86040324      24.58243212        1       1.00000000       0.00000000       0.00000000       0.00000000       0.00000000       0.00000000       0.00000000
H        1.40307756       7.29060486      24.58243212        1       1.00000000       0.00000000       0.00000000       0.00000000       0.00000000       0.00000000       0.00000000
H        4.20923268       7.29060486      24.58243212        1       1.00000000       0.00000000       0.00000000       0.00000000       0.00000000       0.00000000       0.00000000
H        7.01538780       7.29060486      24.58243212        1       1.00000000       0.00000000       0.00000000       0.00000000       0.00000000       0.00000000       0.00000000
H        9.82154292       7.29060486      24.58243212        1       1.00000000       0.00000000       0.00000000       0.00000000       0.00000000       0.00000000       0.00000000
H        7.01574832       4.05081775      26.81103821        0       1.00000000      -0.00002964      -0.00014959      -0.00006050      -0.00004085      -0.00010641       0.00014220
H        8.41826877       1.61988016      26.81096841        0       1.00000000       0.00011118      -0.00001421       0.00004075       0.00001451       0.00000256       0.00009403
50
Lattice="11.224620483093732 0.0 0.0 0.0 9.72080648619833 0.0 0.0 0.0 44.58243212332868" Properties=species:S:1:pos:R:3:tags:I:1:masses:R:1:momenta:R:3:forces:R:3 KEmax=64.62997752912909 iter=29057 volume=4864.494543886885 set_wall=T ns_energy=-30.50302289076765 last_walked_iter_clone=29037 energy=-30.50302292796142 stress="0.019770332560315226 3.481631697580881e-07 7.906346557534355e-08 3.481631697580881e-07 0.01977555953776638 3.117290947039126e-07 7.906346557534355e-08 3.117290947039126e-07 0.012966225085553047" pbc="T T F"
H        1.40307756       0.81006721      20.00000000        3       1.00000000       0.00000000       0.00000000       0.00000000       0.00000000       0.00000000       0.00000000
H        4.20923268       0.81006721      20.00000000        3       1.00000000       0.00000000       0.00000000       0.00000000       0.00000000       0.00000000       0.00000000
H        7.01538780       0.81006721      20.00000000        3       1.00000000       0.00000000       0.00000000       0.00000000       0.00000000       0.00000000       0.00000000
H        9.82154292       0.81006721      20.00000000        3       1.00000000       0.00000000       0.00000000       0.00000000       0.00000000       0.00000000       0.00000000
H        0.00000000       3.24026883      20.00000000        3       1.00000000       0.00000000       0.00000000       0.00000000       0.00000000       0.00000000       0.00000000
H        2.80615512       3.24026883      20.00000000        3       1.00000000       0.00000000       0.00000000       0.00000000       0.00000000       0.00000000       0.00000000
H        5.61231024       3.24026883      20.00000000        3       1.00000000       0.00000000       0.00000000       0.00000000       0.00000000       0.00000000       0.00000000
H        8.41846536       3.24026883      20.00000000        3       1.00000000       0.00000000       0.00000000       0.00000000       0.00000000       0.00000000       0.00000000
H        1.40307756       5.67047045      20.00000000        3       1.00000000       0.00000000       0.00000000       0.00000000       0.00000000       0.00000000       0.00000000
H        4.20923268       5.67047045      20.00000000        3       1.00000000       0.00000000       0.00000000       0.00000000       0.00000000       0.00000000       0.00000000
H        7.01538780       5.67047045      20.00000000        3       1.00000000       0.00000000       0.00000000       0.00000000       0.00000000       0.00000000       0.00000000
H        9.82154292       5.67047045      20.00000000        3       1.00000000       0.00000000       0.00000000       0.00000000       0.00000000       0.00000000       0.00000000
H        0.00000000       8.10067207      20.00000000        3       1.00000000       0.00000000       0.00000000       0.00000000       0.00000000       0.00000000       0.00000000
H        2.80615512       8.10067207      20.00000000        3       1.00000000       0.00000000       0.00000000       0.00000000       0.00000000       0.00000000       0.00000000
H        5.61231024       8.10067207      20.00000000        3       1.00000000       0.00000000       0.00000000       0.00000000       0.00000000       0.00000000       0.00000000
H        8.41846536       8.10067207      20.00000000        3       1.00000000       0.00000000       0.00000000       0.00000000       0.00000000       0.00000000       0.00000000
H        0.00000000       1.62013441      22.29121606        2       1.00000000       0.00000000       0.00000000       0.00000000       0.00000000       0.00000000       0.00000000
H        2.80615512       1.62013441      22.29121606        2       1.00000000       0.00000000       0.00000000       0.00000000       0.00000000       0.00000000       0.00000000
H        5.61231024       1.62013441      22.29121606        2       1.00000000       0.00000000       0.00000000       0.00000000       0.00000000       0.00000000       0.00000000
H        8.41846536       1.62013441      22.29121606        2       1.00000000       0.00000000       0.00000000       0.00000000       0.00000000       0.00000000       0.00000000
H        1.40307756       4.05033604      22.29121606        2       1.00000000       0.00000000       0.00000000       0.00000000       0.00000000       0.00000000       0.00000000
H        4.20923268       4.05033604      22.29121606        2       1.00000000       0.00000000       0.00000000       0.00000000       0.00000000       0.00000000       0.00000000
H        7.01538780       4.05033604      22.29121606        2       1.00000000       0.00000000       0.00000000       0.00000000       0.00000000       0.00000000       0.00000000
H        9.82154292       4.05033604      22.29121606        2       1.00000000       0.00000000       0.00000000       0.00000000       0.00000000       0.00000000       0.00000000
H        0.00000000       6.48053766      22.29121606        2       1.00000000       0.00000000       0.00000000       0.00000000       0.00000000       0.00000000       0.00000000
H        2.80615512       6.48053766      22.29121606        2       1.00000000       0.00000000       0.00000000       0.00000000       0.00000000       0.00000000       0.00000000
H        5.61231024       6.48053766      22.29121606        2       1.00000000       0.00000000       0.00000000       0.00000000       0.00000000       0.00000000       0.00000000
H        8.41846536       6.48053766      22.29121606        2       1.00000000       0.00000000       0.00000000       0.00000000       0.00000000       0.00000000       0.00000000
H        1.40307756       8.91073928      22.29121606        2       1.00000000       0.00000000       0.00000000       0.00000000       0.00000000       0.00000000       0.00000000
H        4.20923268       8.91073928      22.29121606        2       1.00000000       0.00000000       0.00000000       0.00000000       0.00000000       0.00000000       0.00000000
H        7.01538780       8.91073928      22.29121606        2       1.00000000       0.00000000       0.00000000       0.00000000       0.00000000       0.00000000       0.00000000
H        9.82154292       8.91073928      22.29121606        2       1.00000000       0.00000000       0.00000000       0.00000000       0.00000000       0.00000000       0.00000000
H        0.00000000       0.00000000      24.58243212        1       1.00000000       0.00000000       0.00000000       0.00000000       0.00000000       0.00000000       0.00000000
H        2.80615512       0.00000000      24.58243212        1       1.00000000       0.00000000       0.00000000       0.00000000       0.00000000       0.00000000       0.00000000
H        5.61231024       0.00000000      24.58243212        1       1.00000000       0.00000000       0.00000000       0.00000000       0.00000000       0.00000000       0.00000000
H        8.41846536       0.00000000      24.58243212        1       1.00000000       0.00000000       0.00000000       0.00000000       0.00000000       0.00000000       0.00000000
H        1.40307756       2.43020162      24.58243212        1       1.00000000       0.00000000       0.00000000       0.00000000       0.00000000       0.00000000       0.00000000
H        4.20923268       2.43020162      24.58243212        1       1.00000000       0.00000000       0.00000000       0.00000000       0.00000000       0.00000000       0.00000000
H        7.01538780       2.43020162      24.58243212        1       1.00000000       0.00000000       0.00000000       0.00000000       0.00000000       0.00000000       0.00000000
H        9.82154292       2.43020162      24.58243212        1       1.00000000       0.00000000       0.00000000       0.00000000       0.00000000       0.00000000       0.00000000
H        0.00000000       4.86040324      24.58243212        1       1.00000000       0.00000000       0.00000000       0.00000000       0.00000000       0.00000000       0.00000000
H        2.80615512       4.86040324      24.58243212        1       1.00000000       0.00000000       0.00000000       0.00000000       0.00000000       0.00000000       0.00000000
H        5.61231024       4.86040324      24.58243212        1       1.00000000       0.00000000       0.00000000       0.00000000       0.00000000       0.00000000       0.00000000
H        8.41846536       4.86040324      24.58243212        1       1.00000000       0.00000000       0.00000000       0.00000000       0.00000000       0.00000000       0.00000000
H        1.40307756       7.29060486      24.58243212        1       1.00000000       0.00000000       0.00000000       0.00000000       0.00000000       0.00000000       0.00000000
H        4.20923268       7.29060486      24.58243212        1       1.00000000       0.00000000       0.00000000       0.00000000       0.00000000       0.00000000       0.00000000
H        7.01538780       7.29060486      24.58243212        1       1.00000000       0.00000000       0.00000000       0.00000000       0.00000000       0.00000000       0.00000000
H        9.82154292       7.29060486      24.58243212        1       1.00000000       0.00000000       0.00000000       0.00000000       0.00000000       0.00000000       0.00000000
H        7.01561553       4.05068312      26.81103390        0       1.00000000      -0.00012447      -0.00006328      -0.00009856      -0.00004085      -0.00010641       0.00014220
H        8.41828109       1.61977327      26.81111074        0       1.00000000      -0.00009655      -0.00005704       0.00005386       0.00001451       0.00000256       0.00009403
50
Lattice="11.224620483093732 0.0 0.0 0.0 9.72080648619833 0.0 0.0 0.0 44.58243212332868" Properties=species:S:1:pos:R:3:tags:I:1:masses:R:1:momenta:R:3:forces:R:3 KEmax=64.62997752912909 iter=29057 volume=4864.494543886885 set_wall=T ns_energy=-30.50302289186002 last_walked_iter_clone=29039 energy=-30.50302292796142 stress="0.019770332560315226 3.481631697580881e-07 7.906346557534355e-08 3.481631697580881e-07 0.01977555953776638 3.117290947039126e-07 7.906346557534355e-08 3.117290947039126e-07 0.012966225085553047" pbc="T T F"
H        1.40307756       0.81006721      20.00000000        3       1.00000000       0.00000000       0.00000000       0.00000000       0.00000000       0.00000000       0.00000000
H        4.20923268       0.81006721      20.00000000        3       1.00000000       0.00000000       0.00000000       0.00000000       0.00000000       0.00000000       0.00000000
H        7.01538780       0.81006721      20.00000000        3       1.00000000       0.00000000       0.00000000       0.00000000       0.00000000       0.00000000       0.00000000