18
Lattice="5.612310241546866 0.0 0.0 0.0 4.860403243099165 0.0 0.0 0.0 24.582432123328676" Properties=species:S:1:pos:R:3:tags:I:1:masses:R:1:momenta:R:3 KEmax=23.26679191048647 iter=99 volume=670.5618179858607 ns_energy=38.68317863338559 last_walked_iter_clone=48 ns_P=0.0 config_n_global=99 ns_KE=21.13911415975921 pbc="T T T"
H        1.40307756       0.81006721      10.00000000        3       1.00000000       0.00000000       0.00000000       0.00000000
H        4.20923268       0.81006721      10.00000000        3       1.00000000       0.00000000       0.00000000       0.00000000
H        0.00000000       3.24026883      10.00000000        3       1.00000000       0.00000000       0.00000000       0.00000000
H        2.80615512       3.24026883      10.00000000        3       1.00000000       0.00000000       0.00000000       0.00000000
H        0.00000000       1.62013441      12.29121606        2       1.00000000       0.00000000       0.00000000       0.00000000
H        2.80615512       1.62013441      12.29121606        2       1.00000000       0.00000000       0.00000000       0.00000000
H        1.40307756       4.05033604      12.29121606        2       1.00000000       0.00000000       0.00000000       0.00000000
H        4.20923268       4.05033604      12.29121606        2       1.00000000       0.00000000       0.00000000       0.00000000
H        0.00000000       0.00000000      14.58243212        1       1.00000000       0.00000000       0.00000000       0.00000000
H        2.80615512       0.00000000      14.58243212        1       1.00000000       0.00000000       0.00000000       0.00000000
H        1.40307756       2.43020162      14.58243212        1       1.00000000       0.00000000       0.00000000       0.00000000
H        4.20923268       2.43020162      14.58243212        1       1.00000000       0.00000000       0.00000000       0.00000000
H        5.39409710       1.99848861      20.59634108        0       1.00000000       0.60090803      -1.62400298       1.39113371
H        1.26531122       1.88284561      23.29475898        0       1.00000000      -1.55976499       3.21964583      -1.34703297
H        1.04159282       2.88952483       0.92664528        0       1.00000000      -1.81451837      -1.15265958      -1.83243343
H        2.48621127       0.96860671       5.45446845        0       1.00000000      -0.34602017       0.60412601       2.03193397
H        5.38006857       2.88410536      22.11562526        0       1.00000000      -0.13978491      -0.24390663       2.47962879
H        4.93604782       2.72172727       5.31492957        0       1.00000000       0.12197381       1.94473999      -0.33788713
18
Lattice="5.612310241546866 0.0 0.0 0.0 4.860403243099165 0.0 0.0 0.0 24.582432123328676" Properties=species:S:1:pos:R:3:tags:I:1:masses:R:1:momenta:R:3 KEmax=23.26679191048647 iter=199 volume=670.5618179858607 ns_energy=13.946013839503836 last_walked_iter_clone=77 ns_P=0.0 config_n_global=199 ns_KE=22.09200691885041 pbc="T T T"
H        1.40307756       0.81006721      10.00000000        3       1.00000000       0.00000000       0.00000000       0.00000000
H        4.20923268       0.81006721      10.00000000        3       1.00000000       0.00000000       0.00000000       0.00000000
H        0.00000000       3.24026883      10.00000000        3       1.00000000       0.00000000       0.00000000       0.00000000
H        2.80615512       3.24026883      10.00000000        3       1.00000000       0.00000000       0.00000000       0.00000000
H        0.00000000       1.62013441      12.29121606        2       1.00000000       0.00000000       0.00000000       0.00000000
H        2.80615512       1.62013441      12.29121606        2       1.00000000       0.00000000       0.00000000       0.00000000
H        1.40307756       4.05033604      12.29121606        2       1.00000000       0.00000000       0.00000000       0.00000000
H        4.20923268       4.05033604      12.29121606        2       1.00000000       0.00000000       0.00000000       0.00000000
H        0.00000000       0.00000000      14.58243212        1       1.00000000       0.00000000       0.00000000       0.00000000
H        2.80615512       0.00000000      14.58243212        1       1.00000000       0.00000000       0.00000000       0.00000000
H        1.40307756       2.43020162      14.58243212        1       1.00000000       0.00000000       0.00000000       0.00000000
H        4.20923268       2.43020162      14.58243212        1       1.00000000       0.00000000       0.00000000       0.00000000
H        2.58136978       1.50601970       2.06966076        0       1.00000000       1.58393543       1.04851018      -0.73786788
H        1.36182076       0.74179554      23.05525893        0       1.00000000      -1.31863647      -1.59735483      -0.19216777
H        2.08074525       2.27063378      18.41583006        0       1.00000000      -0.30276220       0.13726836      -1.24518095
H        4.56684345       2.88220297       3.44956457        0       1.00000000      -3.10995529       3.21365811       2.46333036
H        1.92129872       4.74296999       4.78766371        0       1.00000000       1.63874182       1.23031072       0.34852851
H        3.61917714       3.78048688      24.04508715        0       1.00000000      -1.08452460       1.57299410      -0.06746408
18
Lattice="5.612310241546866 0.0 0.0 0.0 4.860403243099165 0.0 0.0 0.0 24.582432123328676" Properties=species:S:1:pos:R:3:tags:I:1:masses:R:1:momenta:R:3 KEmax=23.26679191048647 iter=299 volume=670.5618179858607 ns_energy=12.042626870116322 last_walked_iter_clone=249 ns_P=0.0 config_n_global=299 ns_KE=20.257146619755748 pbc="T T T"
H        1.40307756       0.81006721      10.00000000        3       1.00000000       0.00000000       0.00000000       0.00000000
H        4.20923268       0.81006721      10.00000000        3       1.00000000       0.00000000       0.00000000       0.00000000
H        0.00000000       3.24026883      10.00000000        3       1.00000000       0.00000000       0.00000000       0.00000000
H        2.80615512       3.24026883      10.00000000        3       1.00000000       0.00000000       0.00000000       0.00000000
H        0.00000000       1.62013441      12.29121606        2       1.00000000       0.00000000       0.00000000       0.00000000
H        2.80615512       1.62013441      12.29121606        2       1.00000000       0.00000000       0.00000000       0.00000000
H        1.40307756       4.05033604      12.29121606        2       1.00000000       0.00000000       0.00000000       0.00000000
H        4.20923268       4.05033604      12.29121606        2       1.00000000       0.00000000       0.00000000       0.00000000
H        0.00000000       0.00000000      14.58243212        1       1.00000000       0.00000000       0.00000000       0.00000000
H        2.80615512       0.00000000      14.58243212        1       1.00000000       0.00000000       0.00000000       0.00000000
H        1.40307756       2.43020162      14.58243212        1       1.00000000       0.00000000       0.00000000       0.00000000
H        4.20923268       2.43020162      14.58243212        1       1.00000000       0.00000000       0.00000000       0.00000000
H        2.28536056       0.89799348       5.94975125        0       1.00000000      -1.69034702       1.92580280      -3.98774623
H        3.16727690       4.40431563      23.44558083        0       1.00000000      -0.57322013      -0.59140591       0.33853246
H        0.69804467       4.70347672      20.69155283        0       1.00000000       0.57938887       1.85324282      -1.53654871
H        0.74559553       2.70536830       4.20422583        0       1.00000000      -1.49877154       0.35362288       0.77771006
H        4.85982297       1.50604012      18.02629330        0       1.00000000       0.45362520       1.96163201       1.34108363
H        0.82542482       2.18995729      21.95273560        0       1.00000000      -0.61985092       1.09166815       0.84712510
18
Lattice="5.612310241546866 0.0 0.0 0.0 4.860403243099165 0.0 0.0 0.0 24.582432123328676" Properties=species:S:1:pos:R:3:tags:I:1:masses:R:1:momenta:R:3 KEmax=23.26679191048647 iter=399 volume=670.5618179858607 ns_energy=10.069753662247196 last_walked_iter_clone=339 ns_P=0.0 config_n_global=399 ns_KE=16.85499291026732 pbc="T T T"
H        1.40307756       0.81006721      10.00000000        3       1.00000000       0.00000000       0.00000000       0.00000000
H        4.20923268       0.81006721      10.00000000        3       1.00000000       0.00000000       0.00000000       0.00000000
H        0.00000000       3.24026883      10.00000000        3       1.00000000       0.00000000       0.00000000       0.00000000
H        2.80615512       3.24026883      10.00000000        3       1.00000000       0.00000000       0.00000000       0.00000000
H        0.00000000       1.62013441      12.29121606        2       1.00000000       0.00000000       0.00000000       0.00000000
H        2.80615512       1.62013441      12.29121606        2       1.00000000       0.00000000       0.00000000       0.00000000
H        1.40307756       4.05033604      12.29121606        2       1.00000000       0.00000000       0.00000000       0.00000000
H        4.20923268       4.05033604      12.29121606        2       1.00000000       0.00000000       0.00000000       0.00000000
H        0.00000000       0.00000000      14.58243212        1       1.00000000       0.00000000       0.00000000       0.00000000
H        2.80615512       0.00000000      14.58243212        1       1.00000000       0.00000000       0.00000000       0.00000000
H        1.40307756       2.43020162      14.58243212        1       1.00000000       0.00000000       0.00000000       0.00000000
H        4.20923268       2.43020162      14.58243212        1       1.00000000       0.00000000       0.00000000       0.00000000
H        2.23751141       0.89275943       1.10334461        0       1.00000000      -2.22566531       0.23208069      -0.42324006
H        1.66438553       4.60059745       3.40216829        0       1.00000000      -1.28799819       0.14927684       1.13915349
H        5.16060962       0.06035044       2.94274318        0       1.00000000      -1.17185739       1.87245239       0.43645137
H        4.01881328       4.81519201      20.39738876        0       1.00000000      -1.73442453       0.54100136       0.62381710
H        3.89762969       1.72991183      18.87945667        0       1.00000000      -0.88936720      -1.09022799       3.27550010
H        3.23956687       4.61869282       7.29896769        0       1.00000000      -0.91693987       0.01211473       1.79867699
18
Lattice="5.612310241546866 0.0 0.0 0.0 4.860403243099165 0.0 0.0 0.0 24.582432123328676" Properties=species:S:1:pos:R:3:tags:I:1:masses:R:1:momenta:R:3 KEmax=23.26679191048647 iter=499 volume=670.5618179858607 ns_energy=8.50876734520201 last_walked_iter_clone=436 ns_P=0.0 config_n_global=499 ns_KE=15.980190814421015 pbc="T T T"
H        1.40307756       0.81006721      10.00000000        3       1.00000000       0.00000000       0.00000000       0.00000000
H        4.20923268       0.81006721      10.00000000        3       1.00000000       0.00000000       0.00000000       0.00000000
H        0.00000000       3.24026883      10.00000000        3       1.00000000       0.00000000       0.00000000       0.00000000
H        2.80615512       3.24026883      10.00000000        3       1.00000000       0.00000000       0.00000000       0.00000000
H        0.00000000       1.62013441      12.29121606        2       1.00000000       0.00000000       0.00000000       0.00000000
H        2.80615512       1.62013441      12.29121606        2       1.00000000       0.00000000       0.00000000       0.00000000
H        1.40307756       4.05033604      12.29121606        2       1.00000000       0.00000000       0.00000000       0.00000000
H        4.20923268       4.05033604      12.29121606        2       1.00000000       0.00000000       0.00000000       0.00000000
H        0.00000000       0.00000000      14.58243212        1       1.00000000       0.00000000       0.00000000       0.00000000
H        2.80615512       0.00000000      14.58243212        1       1.00000000       0.00000000       0.00000000       0.00000000
H        1.40307756       2.43020162      14.58243212        1       1.00000000       0.00000000       0.00000000       0.00000000
H        4.20923268       2.43020162      14.58243212        1       1.00000000       0.00000000       0.00000000       0.00000000
H        4.46531432       2.06153458      16.72535909        0       1.00000000      -1.08766760       1.97780259      -0.15660876
H        1.49738915       2.44760393       7.43957335        0       1.00000000       0.11835502      -0.09110921      -1.41133740
H        2.77374078       1.62439446      21.57527411        0       1.00000000       0.30478334       1.86797493       0.84139958
H        2.98765548       2.59220760       3.58383406        0       1.00000000      -2.29107203       2.52173726      -0.97595836
H        1.30392458      -0.10606850      20.25630946        0       1.00000000      -0.07706160      -1.79824623      -0.02377883
H        5.24292473       0.54974465      23.00063211        0       1.00000000      -0.41191388       1.71821278       1.27042775
18
Lattice="5.612310241546866 0.0 0.0 0.0 4.860403243099165 0.0 0.0 0.0 24.582432123328676" Properties=species:S:1:pos:R:3:tags:I:1:masses:R:1:momenta:R:3 KEmax=23.26679191048647 iter=599 volume=670.5618179858607 ns_energy=6.9981293203308566 ns_P=0.0 config_n_global=599 ns_KE=7.663504621484351 pbc="T T T"
H        1.40307756       0.81006721      10.00000000        3       1.00000000       0.00000000       0.00000000       0.00000000
H        4.20923268       0.81006721      10.00000000        3       1.00000000       0.00000000       0.00000000       0.00000000
H        0.00000000       3.24026883      10.00000000        3       1.00000000       0.00000000       0.00000000       0.00000000
H        2.80615512       3.24026883      10.00000000        3       1.00000000       0.00000000       0.00000000       0.00000000
H        0.00000000       1.62013441      12.29121606        2       1.00000000       0.00000000       0.00000000       0.00000000
H        2.80615512       1.62013441      12.29121606        2       1.00000000       0.00000000       0.00000000       0.00000000
H        1.40307756       4.05033604      12.29121606        2       1.00000000       0.00000000       0.00000000       0.00000000
H        4.20923268       4.05033604      12.29121606        2       1.00000000       0.00000000       0.00000000       0.00000000
H        0.00000000       0.00000000      14.58243212        1       1.00000000       0.00000000       0.00000000       0.00000000
H        2.80615512       0.00000000      14.58243212        1       1.00000000       0.00000000       0.00000000       0.00000000
H        1.40307756       2.43020162      14.58243212        1       1.00000000       0.00000000       0.00000000       0.00000000
H        4.20923268       2.43020162      14.58243212        1       1.00000000       0.00000000       0.00000000       0.00000000
H        0.62517641       1.43230657      16.58942551        0       1.00000000      -0.47191164      -0.85330909       0.48648528
H        0.37213773       4.59960486      17.68531874        0       1.00000000       0.40370673      -0.87378497      -1.00377007
H        1.87408487       4.69430926      19.00916608        0       1.00000000       0.51286419      -0.52019972       1.09410600
H        3.88755655       1.39783586       0.53915708        0       1.00000000       1.60307670       0.88785529       0.74345314
H        0.91512201       1.68213351       2.65696199        0       1.00000000      -0.70235971       1.00587442       1.21416996
H        4.09447279       2.24659142       6.50578612        0       1.00000000       1.03324726      -0.94894140      -1.27142042
18
Lattice="5.612310241546866 0.0 0.0 0.0 4.860403243099165 0.0 0.0 0.0 24.582432123328676" Properties=species:S:1:pos:R:3:tags:I:1:masses:R:1:momenta:R:3 KEmax=23.26679191048647 iter=699 volume=670.5618179858607 ns_energy=5.5448290550079316 last_walked_iter_clone=596 ns_P=0.0 config_n_global=699 ns_KE=13.764611147682182 pbc="T T T"
H        1.40307756       0.81006721      10.00000000        3       1.00000000       0.00000000       0.00000000       0.00000000
H        4.20923268       0.81006721      10.00000000        3       1.00000000       0.00000000       0.00000000       0.00000000
H        0.00000000       3.24026883      10.00000000        3       1.00000000       0.00000000       0.00000000       0.00000000
H        2.80615512       3.24026883      10.00000000        3       1.00000000       0.00000000       0.00000000       0.00000000
H        0.00000000       1.62013441      12.29121606        2       1.00000000       0.00000000       0.00000000       0.00000000
H        2.80615512       1.62013441      12.29121606        2       1.00000000       0.00000000       0.00000000       0.00000000
H        1.40307756       4.05033604      12.29121606        2       1.00000000       0.00000000       0.00000000       0.00000000
H        4.20923268       4.05033604      12.29121606        2       1.00000000       0.00000000       0.00000000       0.00000000
H        0.00000000       0.00000000      14.58243212        1       1.00000000       0.00000000       0.00000000       0.00000000
H        2.80615512       0.00000000      14.58243212        1       1.00000000       0.00000000       0.00000000       0.00000000
H        1.40307756       2.43020162      14.58243212        1       1.00000000       0.00000000       0.00000000       0.00000000
H        4.20923268       2.43020162      14.58243212        1       1.00000000       0.00000000       0.00000000       0.00000000
H        3.68821144       1.02627400      22.24088098        0       1.00000000       1.47386961      -0.84251139      -1.66629652
H        4.18162411       0.77585989      19.53128970        0       1.00000000      -0.96824009       0.93222384       0.10673502
H        3.67125063       1.14887309       4.41491219        0       1.00000000       1.33578206       0.86229410      -0.26707473
H        0.57649302       0.27917854       3.70268767        0       1.00000000       1.90762724      -0.37138679       2.38160464
H        1.16933627       0.92473336      19.19755409        0       1.00000000      -0.20974517      -2.06496048      -0.03727206
H        2.59652259       3.37871827       2.14202284        0       1.00000000      -0.11308009       1.33277012      -1.38055318
18
Lattice="5.612310241546866 0.0 0.0 0.0 4.860403243099165 0.0 0.0 0.0 24.582432123328676" Properties=species:S:1:pos:R:3:tags:I:1:masses:R:1:momenta:R:3 KEmax=23.26679191048647 iter=799 volume=670.5618179858607 ns_energy=4.235850116593755 last_walked_iter_clone=669 ns_P=0.0 config_n_global=799 ns_KE=12.670149340497474 pbc="T T T"
H        1.40307756       0.81006721      10.00000000        3       1.00000000       0.00000000       0.00000000       0.00000000
H        4.20923268       0.81006721      10.00000000        3       1.00000000       0.00000000       0.00000000       0.00000000
H        0.00000000       3.24026883      10.00000000        3       1.00000000       0.00000000       0.00000000       0.00000000
H        2.80615512       3.24026883      10.00000000        3       1.00000000       0.00000000       0.00000000       0.00000000
H        0.00000000       1.62013441      12.29121606        2       1.00000000       0.00000000       0.00000000       0.00000000
H        2.80615512       1.62013441      12.29121606        2       1.00000000       0.00000000       0.00000000       0.00000000
H        1.40307756       4.05033604      12.29121606        2       1.00000000       0.00000000       0.00000000       0.00000000
H        4.20923268       4.05033604      12.29121606        2       1.00000000       0.00000000       0.00000000       0.00000000
H        0.00000000       0.00000000      14.58243212        1       1.00000000       0.00000000       0.00000000       0.00000000
H        2.80615512       0.00000000      14.58243212        1       1.00000000       0.00000000       0.00000000       0.00000000
H        1.40307756       2.43020162      14.58243212        1       1.00000000       0.00000000       0.00000000       0.00000000
H        4.20923268       2.43020162      14.58243212        1       1.00000000       0.00000000       0.00000000       0.00000000
H        1.06499507       4.88957129      16.75360463        0       1.00000000       0.26513207       0.25557368      -1.76116423
H        2.60457396       3.53780457       0.04209888        0       1.00000000      -0.57084802      -0.59396411      -3.31382575
H        3.60917219       0.78450227      17.88641614        0       1.00000000       1.33312037      -0.35650473       0.50499149
H        1.09029950       1.68755840      22.60307659        0       1.00000000       1.17344948       0.76493163      -0.52904478
H        3.67245684       1.55820109       3.38491675        0       1.00000000       0.12262711      -0.21923800       0.12974517
H        0.73112034       2.62631905       2.47837958        0       1.00000000       1.23962361       2.09480991      -0.19167206
18
Lattice="5.612310241546866 0.0 0.0 0.0 4.860403243099165 0.0 0.0 0.0 24.582432123328676" Properties=species:S:1:pos:R:3:tags:I:1:masses:R:1:momenta:R:3 KEmax=23.26679191048647 iter=899 volume=670.5618179858607 ns_energy=3.0948288291162256 last_walked_iter_clone=851 ns_P=0.0 config_n_global=899 ns_KE=11.26488753547633 pbc="T T T"
H        1.40307756       0.81006721      10.00000000        3       1.00000000       0.00000000       0.00000000       0.00000000
H        4.20923268       0.81006721      10.00000000        3       1.00000000       0.00000000       0.00000000       0.00000000
H        0.00000000       3.24026883      10.00000000        3       1.00000000       0.00000000       0.00000000       0.00000000
H        2.80615512       3.24026883      10.00000000        3       1.00000000       0.00000000       0.00000000       0.00000000
H        0.00000000       1.62013441      12.29121606        2       1.00000000       0.00000000       0.00000000       0.00000000
H        2.80615512       1.62013441      12.29121606        2       1.00000000       0.00000000       0.00000000       0.00000000
H        1.40307756       4.05033604      12.29121606        2       1.00000000       0.00000000       0.00000000       0.00000000
H        4.20923268       4.05033604      12.29121606        2       1.00000000       0.00000000       0.00000000       0.00000000
H        0.00000000       0.00000000      14.58243212        1       1.00000000       0.00000000       0.00000000       0.00000000
H        2.80615512       0.00000000      14.58243212        1       1.00000000       0.00000000       0.00000000       0.00000000
H        1.40307756       2.43020162      14.58243212        1       1.00000000       0.00000000       0.00000000       0.00000000
H        4.20923268       2.43020162      14.58243212        1       1.00000000       0.00000000       0.00000000       0.00000000
H        3.97283598       0.53693768       4.77364916        0       1.00000000       0.95978674       0.84604285      -0.25782145
H        4.74474796       1.60629801      21.20583534        0       1.00000000      -1.07335232      -2.75666253       2.07349518
H        5.00568873       1.12315464      18.69314918        0       1.00000000      -0.28639954      -1.82762542      -0.09281281
H        0.25736734       3.98049468       4.29447074        0       1.00000000      -0.57214084       0.07144185       0.18727058
H        4.44014266       3.30152163      17.31110053        0       1.00000000       0.30402107       0.53700870      -1.64421821
H        2.36970636       4.18474958       1.91679182        0       1.00000000      -0.90596512      -0.07153438      -0.25912296
18
Lattice="5.612310241546866 0.0 0.0 0.0 4.860403243099165 0.0 0.0 0.0 24.582432123328676" Properties=species:S:1:pos:R:3:tags:I:1:masses:R:1:momenta:R:3 KEmax=23.26679191048647 iter=999 volume=670.5618179858607 ns_energy=2.079963024279644 last_walked_iter_clone=930 ns_P=0.0 config_n_global=999 ns_KE=10.2092550418118 pbc="T T T"
H        1.40307756       0.81006721      10.00000000        3       1.00000000       0.00000000       0.00000000       0.00000000
H        4.20923268       0.81006721      10.00000000        3       1.00000000       0.00000000       0.00000000       0.00000000
H        0.00000000       3.24026883      10.00000000        3       1.00000000       0.00000000       0.00000000       0.00000000
H        2.80615512       3.24026883      10.00000000        3       1.00000000       0.00000000       0.00000000       0.00000000
H        0.00000000       1.62013441      12.29121606        2       1.00000000       0.00000000       0.00000000       0.00000000
H        2.80615512       1.62013441      12.29121606        2       1.00000000       0.00000000       0.00000000       0.00000000
H        1.40307756       4.05033604      12.29121606        2       1.00000000       0.00000000       0.00000000       0.00000000
H        4.20923268       4.05033604      12.29121606        2       1.00000000       0.00000000       0.00000000       0.00000000
H        0.00000000       0.00000000      14.58243212        1       1.00000000       0.00000000       0.00000000       0.00000000
H        2.80615512       0.00000000      14.58243212        1       1.00000000       0.00000000       0.00000000       0.00000000
H        1.40307756       2.43020162      14.58243212        1       1.00000000       0.00000000       0.00000000       0.00000000
H        4.20923268       2.43020162      14.58243212        1       1.00000000       0.00000000       0.00000000       0.00000000
H        4.39759866       4.60427472       0.98294451        0       1.00000000       0.09719449       1.13502659       0.08284187
H        1.60399580       1.23084912       5.79040997        0       1.00000000       0.89678638       0.69767863       0.38305573
H        4.92742279       3.24622619      22.81289332        0       1.00000000       0.13051635       1.02016419       2.45139842
H        2.74826811       1.52762658      20.41016794        0       1.00000000       1.08318950      -0.83602824       0.09927450
H        0.30597956       4.37057340      19.43243331        0       1.00000000      -2.79344376      -0.24362343      -0.75287770
H        0.32519923       3.38152128       7.61641438        0       1.00000000       0.40442783      -0.13164970      -0.34144048
18
Lattice="5.612310241546866 0.0 0.0 0.0 4.860403243099165 0.0 0.0 0.0 24.582432123328676" Properties=species:S:1:pos:R:3:tags:I:1:masses:R:1:momenta:R:3 KEmax=23.26679191048647 iter=1099 volume=670.5618179858607 ns_energy=1.2297052554015426 last_walked_iter_clone=1020 ns_P=0.0 config_n_global=1099 ns_KE=9.823846677114549 pbc="T T T"
H        1.40307756       0.81006721      10.00000000        3       1.00000000       0.00000000       0.00000000       0.00000000
H        4.20923268       0.81006721      10.00000000        3       1.00000000       0.00000000       0.00000000       0.00000000
H        0.00000000       3.24026883      10.00000000        3       1.00000000       0.00000000       0.00000000       0.00000000
H        2.80615512       3.24026883      10.00000000        3       1.00000000       0.00000000       0.00000000       0.00000000
H        0.00000000       1.62013441      12.29121606        2       1.00000000       0.00000000       0.00000000       0.00000000
H        2.80615512       1.62013441      12.29121606        2       1.00000000       0.00000000       0.00000000       0.00000000
H        1.40307756       4.05033604      12.29121606        2       1.00000000       0.00000000       0.00000000       0.00000000
H        4.20923268       4.05033604      12.29121606        2       1.00000000       0.00000000       0.00000000       0.00000000
H        0.00000000       0.00000000      14.58243212        1       1.00000000       0.00000000       0.00000000       0.00000000
H        2.80615512       0.00000000      14.58243212        1       1.00000000       0.00000000       0.00000000       0.00000000
H        1.40307756       2.43020162      14.58243212        1       1.00000000       0.00000000       0.00000000       0.00000000
H        4.20923268       2.43020162      14.58243212        1       1.00000000       0.00000000       0.00000000       0.00000000
H        2.78978589       2.34059459      16.79703909        0       1.00000000       0.38964693       0.11608493      -0.88802118
H        5.36001431       2.13685678       4.73851784        0       1.00000000      -0.59044136       0.66255167      -0.83431044
H       -0.03499165       3.50018923      -0.18751837        0       1.00000000      -1.35325056      -0.08166284      -1.45961269
H        5.00416550       3.18511697      19.79885069        0       1.00000000      -1.72596840       2.72999201       0.10716270
H        3.70450354       4.75757877       4.95272335        0       1.00000000      -0.86224981       1.19936465       0.16689187
H        3.86367867       3.70667471       7.28079059        0       1.00000000       0.21389849      -0.33489196      -0.65627820
18
Lattice="5.612310241546866 0.0 0.0 0.0 4.860403243099165 0.0 0.0 0.0 24.582432123328676" Properties=species:S:1:pos:R:3:tags:I:1:masses:R:1:momenta:R:3 KEmax=23.26679191048647 iter=1199 volume=670.5618179858607 ns_energy=0.5806117700440754 last_walked_iter_clone=1140 ns_P=0.0 config_n_global=1199 ns_KE=8.293199767190474 pbc="T T T"