18
Lattice="5.612310241546866 0.0 0.0 0.0 4.860403243099165 0.0 0.0 0.0 24.582432123328676" Properties=species:S:1:pos:R:3:tags:I:1:masses:R:1:momenta:R:3:forces:R:3 KEmax=23.26679191048647 iter=87083 volume=670.5618179858607 ns_energy=-11.645161401436287 last_walked_iter_clone=87014 energy=-11.645161401490045 stress="0.00823288463483294 5.70241272206032e-09 -8.285757663922922e-09 5.70241272206032e-09 0.008225759313765577 3.1758620613477513e-08 -8.285757663922922e-09 3.1758620613477513e-08 0.00425198795164184" pbc="T T T"
H        1.40307756       0.81006721      10.00000000        3       1.00000000       0.00000000       0.00000000       0.00000000       0.00000000       0.00000000       0.00000000
H        4.20923268       0.81006721      10.00000000        3       1.00000000       0.00000000       0.00000000       0.00000000       0.00000000       0.00000000       0.00000000
H        0.00000000       3.24026883      10.00000000        3       1.00000000       0.00000000       0.00000000       0.00000000       0.00000000       0.00000000       0.00000000
H        2.80615512       3.24026883      10.00000000        3       1.00000000       0.00000000       0.00000000       0.00000000       0.00000000       0.00000000       0.00000000
H        0.00000000       1.62013441      12.29121606        2       1.00000000       0.00000000       0.00000000       0.00000000       0.00000000       0.00000000       0.00000000
H        2.80615512       1.62013441      12.29121606        2       1.00000000       0.00000000       0.00000000       0.00000000       0.00000000       0.00000000       0.00000000
H        1.40307756       4.05033604      12.29121606        2       1.00000000       0.00000000       0.00000000       0.00000000       0.00000000       0.00000000       0.00000000
H        4.20923268       4.05033604      12.29121606        2       1.00000000       0.00000000       0.00000000       0.00000000       0.00000000       0.00000000       0.00000000
H        0.00000000       0.00000000      14.58243212        1       1.00000000       0.00000000       0.00000000       0.00000000       0.00000000       0.00000000       0.00000000
H        2.80615512       0.00000000      14.58243212        1       1.00000000       0.00000000       0.00000000       0.00000000       0.00000000       0.00000000       0.00000000
H        1.40307756       2.43020162      14.58243212        1       1.00000000       0.00000000       0.00000000       0.00000000       0.00000000       0.00000000       0.00000000
H        4.20923268       2.43020162      14.58243212        1       1.00000000       0.00000000       0.00000000       0.00000000       0.00000000       0.00000000       0.00000000
H        2.81626793       3.22531774      16.81311744        0       1.00000000       0.00000393       0.00000261      -0.00000364       0.00000607      -0.00000019      -0.00000078
H        5.60841359       3.25286334      16.78888466        0       1.00000000      -0.00000104       0.00000272      -0.00000193      -0.00000122       0.00000720       0.00000047
H        1.40928672       4.06918658      19.01644253        0       1.00000000       0.00000201       0.00000007      -0.00000001      -0.00000137      -0.00000704      -0.00000152
H        1.40697284       0.82266113      16.78888485        0       1.00000000       0.00000375       0.00000181       0.00000113       0.00000157       0.00000234      -0.00000348
H        4.19911913       0.79511427      16.81311961        0       1.00000000      -0.00000465      -0.00000011      -0.00000094       0.00000197      -0.00000362      -0.00000131
H        5.60610647       1.63898665      19.01644222        0       1.00000000       0.00000454      -0.00000198      -0.00000122      -0.00000160       0.00000260       0.00000014
18
Lattice="5.612310241546866 0.0 0.0 0.0 4.860403243099165 0.0 0.0 0.0 24.582432123328676" Properties=species:S:1:pos:R:3:tags:I:1:masses:R:1:momenta:R:3:forces:R:3 KEmax=23.26679191048647 iter=87083 volume=670.5618179858607 ns_energy=-11.645161401437214 last_walked_iter_clone=86977 energy=-11.645161401490045 stress="0.00823288463483294 5.70241272206032e-09 -8.285757663922922e-09 5.70241272206032e-09 0.008225759313765577 3.1758620613477513e-08 -8.285757663922922e-09 3.1758620613477513e-08 0.00425198795164184" pbc="T T T"
H        1.40307756       0.81006721      10.00000000        3       1.00000000       0.00000000       0.00000000       0.00000000       0.00000000       0.00000000       0.00000000
H        4.20923268       0.81006721      10.00000000        3       1.00000000       0.00000000       0.00000000       0.00000000       0.00000000       0.00000000       0.00000000
H        0.00000000       3.24026883      10.00000000        3       1.00000000       0.00000000       0.00000000       0.00000000       0.00000000       0.00000000       0.00000000
H        2.80615512       3.24026883      10.00000000        3       1.00000000       0.00000000       0.00000000       0.00000000       0.00000000       0.00000000       0.00000000
H        0.00000000       1.62013441      12.29121606        2       1.00000000       0.00000000       0.00000000       0.00000000       0.00000000       0.00000000       0.00000000
H        2.80615512       1.62013441      12.29121606        2       1.00000000       0.00000000       0.00000000       0.00000000       0.00000000       0.00000000       0.00000000
H        1.40307756       4.05033604      12.29121606        2       1.00000000       0.00000000       0.00000000       0.00000000       0.00000000       0.00000000       0.00000000
H        4.20923268       4.05033604      12.29121606        2       1.00000000       0.00000000       0.00000000       0.00000000       0.00000000       0.00000000       0.00000000
H        0.00000000       0.00000000      14.58243212        1       1.00000000       0.00000000       0.00000000       0.00000000       0.00000000       0.00000000       0.00000000
H        2.80615512       0.00000000      14.58243212        1       1.00000000       0.00000000       0.00000000       0.00000000       0.00000000       0.00000000       0.00000000
H        1.40307756       2.43020162      14.58243212        1       1.00000000       0.00000000       0.00000000       0.00000000       0.00000000       0.00000000       0.00000000
H        4.20923268       2.43020162      14.58243212        1       1.00000000       0.00000000       0.00000000       0.00000000       0.00000000       0.00000000       0.00000000
H        2.81626925       3.22531461      16.81311733        0       1.00000000       0.00000273      -0.00000145       0.00000117       0.00000607      -0.00000019      -0.00000078
H        5.60841143       3.25285969      16.78888276        0       1.00000000       0.00000324      -0.00000192       0.00000014      -0.00000122       0.00000720       0.00000047
H        1.40928222       4.06918604      19.01643984        0       1.00000000       0.00000277       0.00000146      -0.00000021      -0.00000137      -0.00000704      -0.00000152
H        1.40697429       0.82266032      16.78888372        0       1.00000000      -0.00000187       0.00000176       0.00000329       0.00000157       0.00000234      -0.00000348
H        4.19912091       0.79511360      16.81311814        0       1.00000000      -0.00000056      -0.00000327      -0.00000415       0.00000197      -0.00000362      -0.00000131
H        5.60610232       1.63898618      19.01644367        0       1.00000000       0.00000084       0.00000023       0.00000267      -0.00000160       0.00000260       0.00000014
18
Lattice="5.612310241546866 0.0 0.0 0.0 4.860403243099165 0.0 0.0 0.0 24.582432123328676" Properties=species:S:1:pos:R:3:tags:I:1:masses:R:1:momenta:R:3:forces:R:3 KEmax=23.26679191048647 iter=87083 volume=670.5618179858607 ns_energy=-11.6451614014371 last_walked_iter_clone=87021 energy=-11.645161401490045 stress="0.00823288463483294 5.70241272206032e-09 -8.285757663922922e-09 5.70241272206032e-09 0.008225759313765577 3.1758620613477513e-08 -8.285757663922922e-09 3.1758620613477513e-08 0.00425198795164184" pbc="T T T"
H        1.40307756       0.81006721      10.00000000        3       1.00000000       0.00000000       0.00000000       0.00000000       0.00000000       0.00000000       0.00000000
H        4.20923268       0.81006721      10.00000000        3       1.00000000       0.00000000       0.00000000       0.00000000       0.00000000       0.00000000       0.00000000
H        0.00000000       3.24026883      10.00000000        3       1.00000000       0.00000000       0.00000000       0.00000000       0.00000000       0.00000000       0.00000000
H        2.80615512       3.24026883      10.00000000        3       1.00000000       0.00000000       0.00000000       0.00000000       0.00000000       0.00000000       0.00000000
H        0.00000000       1.62013441      12.29121606        2       1.00000000       0.00000000       0.00000000       0.00000000       0.00000000       0.00000000       0.00000000
H        2.80615512       1.62013441      12.29121606        2       1.00000000       0.00000000       0.00000000       0.00000000       0.00000000       0.00000000       0.00000000
H        1.40307756       4.05033604      12.29121606        2       1.00000000       0.00000000       0.00000000       0.00000000       0.00000000       0.00000000       0.00000000
H        4.20923268       4.05033604      12.29121606        2       1.00000000       0.00000000       0.00000000       0.00000000       0.00000000       0.00000000       0.00000000
H        0.00000000       0.00000000      14.58243212        1       1.00000000       0.00000000       0.00000000       0.00000000       0.00000000       0.00000000       0.00000000
H        2.80615512       0.00000000      14.58243212        1       1.00000000       0.00000000       0.00000000       0.00000000       0.00000000       0.00000000       0.00000000
H        1.40307756       2.43020162      14.58243212        1       1.00000000       0.00000000       0.00000000       0.00000000       0.00000000       0.00000000       0.00000000
H        4.20923268       2.43020162      14.58243212        1       1.00000000       0.00000000       0.00000000       0.00000000       0.00000000       0.00000000       0.00000000
H        2.81626731       3.22531627      16.81312032        0       1.00000000      -0.00000018       0.00000579       0.00000113       0.00000607      -0.00000019      -0.00000078
H        5.60841506       3.25286344      16.78888380        0       1.00000000      -0.00000117       0.00000182      -0.00000126      -0.00000122       0.00000720       0.00000047
H        1.40928315       4.06918982      19.01644132        0       1.00000000      -0.00000184       0.00000136      -0.00000099      -0.00000137      -0.00000704      -0.00000152
H        1.40697223       0.82266003      16.78888336        0       1.00000000       0.00000285      -0.00000050       0.00000280       0.00000157       0.00000234      -0.00000348
H        4.19911700       0.79511356      16.81311791        0       1.00000000      -0.00000383      -0.00000233       0.00000370       0.00000197      -0.00000362      -0.00000131
H        5.60610111       1.63898538      19.01644069        0       1.00000000       0.00000020       0.00000210      -0.00000060      -0.00000160       0.00000260       0.00000014
18
Lattice="5.612310241546866 0.0 0.0 0.0 4.860403243099165 0.0 0.0 0.0 24.582432123328676" Properties=species:S:1:pos:R:3:tags:I:1:masses:R:1:momenta:R:3:forces:R:3 KEmax=23.26679191048647 iter=87083 volume=670.5618179858607 ns_energy=-11.645161401438664 last_walked_iter_clone=86862 energy=-11.645161401490045 stress="0.00823288463483294 5.70241272206032e-09 -8.285757663922922e-09 5.70241272206032e-09 0.008225759313765577 3.1758620613477513e-08 -8.285757663922922e-09 3.1758620613477513e-08 0.00425198795164184" pbc="T T T"
H        1.40307756       0.81006721      10.00000000        3       1.00000000       0.00000000       0.00000000       0.00000000       0.00000000       0.00000000       0.00000000
H        4.20923268       0.81006721      10.00000000        3       1.00000000       0.00000000       0.00000000       0.00000000       0.00000000       0.00000000       0.00000000
H        0.00000000       3.24026883      10.00000000        3       1.00000000       0.00000000       0.00000000       0.00000000       0.00000000       0.00000000       0.00000000
H        2.80615512       3.24026883      10.00000000        3       1.00000000       0.00000000       0.00000000       0.00000000       0.00000000       0.00000000       0.00000000
H        0.00000000       1.62013441      12.29121606        2       1.00000000       0.00000000       0.00000000       0.00000000       0.00000000       0.00000000       0.00000000
H        2.80615512       1.62013441      12.29121606        2       1.00000000       0.00000000       0.00000000       0.00000000       0.00000000       0.00000000       0.00000000
H        1.40307756       4.05033604      12.29121606        2       1.00000000       0.00000000       0.00000000       0.00000000       0.00000000       0.00000000       0.00000000
H        4.20923268       4.05033604      12.29121606        2       1.00000000       0.00000000       0.00000000       0.00000000       0.00000000       0.00000000       0.00000000
H        0.00000000       0.00000000      14.58243212        1       1.00000000       0.00000000       0.00000000       0.00000000       0.00000000       0.00000000       0.00000000
H        2.80615512       0.00000000      14.58243212        1       1.00000000       0.00000000       0.00000000       0.00000000       0.00000000       0.00000000       0.00000000
H        1.40307756       2.43020162      14.58243212        1       1.00000000       0.00000000       0.00000000       0.00000000       0.00000000       0.00000000       0.00000000
H        4.20923268       2.43020162      14.58243212        1       1.00000000       0.00000000       0.00000000       0.00000000       0.00000000       0.00000000       0.00000000
H        2.81626825       3.22531822      16.81311901        0       1.00000000      -0.00000064       0.00000058      -0.00000136       0.00000607      -0.00000019      -0.00000078
H        5.60841250       3.25286568      16.78888485        0       1.00000000       0.00000287      -0.00000367       0.00000137      -0.00000122       0.00000720       0.00000047
H        1.40928646       4.06919199      19.01644112        0       1.00000000       0.00000242       0.00000039       0.00000437      -0.00000137      -0.00000704      -0.00000152
H        1.40697304       0.82266733      16.78888308        0       1.00000000      -0.00000022       0.00000172       0.00000003       0.00000157       0.00000234      -0.00000348
H        4.19911847       0.79511723      16.81312014        0       1.00000000      -0.00000082       0.00000001      -0.00000013       0.00000197      -0.00000362      -0.00000131
H        5.60610100       1.63898984      19.01644398        0       1.00000000       0.00000157       0.00000342       0.00000212      -0.00000160       0.00000260       0.00000014
18
Lattice="5.612310241546866 0.0 0.0 0.0 4.860403243099165 0.0 0.0 0.0 24.582432123328676" Properties=species:S:1:pos:R:3:tags:I:1:masses:R:1:momenta:R:3:forces:R:3 KEmax=23.26679191048647 iter=87083 volume=670.5618179858607 ns_energy=-11.645161401438672 last_walked_iter_clone=87054 energy=-11.645161401490045 stress="0.00823288463483294 5.70241272206032e-09 -8.285757663922922e-09 5.70241272206032e-09 0.008225759313765577 3.1758620613477513e-08 -8.285757663922922e-09 3.1758620613477513e-08 0.00425198795164184" pbc="T T T"
H        1.40307756       0.81006721      10.00000000        3       1.00000000       0.00000000       0.00000000       0.00000000       0.00000000       0.00000000       0.00000000
H        4.20923268       0.81006721      10.00000000        3       1.00000000       0.00000000       0.00000000       0.00000000       0.00000000       0.00000000       0.00000000
H        0.00000000       3.24026883      10.00000000        3       1.00000000       0.00000000       0.00000000       0.00000000       0.00000000       0.00000000       0.00000000
H        2.80615512       3.24026883      10.00000000        3       1.00000000       0.00000000       0.00000000       0.00000000       0.00000000       0.00000000       0.00000000
H        0.00000000       1.62013441      12.29121606        2       1.00000000       0.00000000       0.00000000       0.00000000       0.00000000       0.00000000       0.00000000
H        2.80615512       1.62013441      12.29121606        2       1.00000000       0.00000000       0.00000000       0.00000000       0.00000000       0.00000000       0.00000000
H        1.40307756       4.05033604      12.29121606        2       1.00000000       0.00000000       0.00000000       0.00000000       0.00000000       0.00000000       0.00000000
H        4.20923268       4.05033604      12.29121606        2       1.00000000       0.00000000       0.00000000       0.00000000       0.00000000       0.00000000       0.00000000
H        0.00000000       0.00000000      14.58243212        1       1.00000000       0.00000000       0.00000000       0.00000000       0.00000000       0.00000000       0.00000000
H        2.80615512       0.00000000      14.58243212        1       1.00000000       0.00000000       0.00000000       0.00000000       0.00000000       0.00000000       0.00000000
H        1.40307756       2.43020162      14.58243212        1       1.00000000       0.00000000       0.00000000       0.00000000       0.00000000       0.00000000       0.00000000
H        4.20923268       2.43020162      14.58243212        1       1.00000000       0.00000000       0.00000000       0.00000000       0.00000000       0.00000000       0.00000000
H        2.81626816       3.22531333      16.81312125        0       1.00000000      -0.00000172       0.00000427      -0.00000357       0.00000607      -0.00000019      -0.00000078
H        5.60841247       3.25286309      16.78888362        0       1.00000000       0.00000017      -0.00000130       0.00000012      -0.00000122       0.00000720       0.00000047
H        1.40928364       4.06918488      19.01644224        0       1.00000000      -0.00000372       0.00000086      -0.00000237      -0.00000137      -0.00000704      -0.00000152
H        1.40697496       0.82265919      16.78888157        0       1.00000000      -0.00000245       0.00000149       0.00000506       0.00000157       0.00000234      -0.00000348
H        4.19911958       0.79511313      16.81311702        0       1.00000000       0.00000251      -0.00000043      -0.00000087       0.00000197      -0.00000362      -0.00000131
H        5.60610222       1.63898527      19.01643974        0       1.00000000       0.00000188       0.00000008      -0.00000017      -0.00000160       0.00000260       0.00000014
18
Lattice="5.612310241546866 0.0 0.0 0.0 4.860403243099165 0.0 0.0 0.0 24.582432123328676" Properties=species:S:1:pos:R:3:tags:I:1:masses:R:1:momenta:R:3:forces:R:3 KEmax=23.26679191048647 iter=87083 volume=670.5618179858607 ns_energy=-11.645161401436559 last_walked_iter_clone=86960 energy=-11.645161401490045 stress="0.00823288463483294 5.70241272206032e-09 -8.285757663922922e-09 5.70241272206032e-09 0.008225759313765577 3.1758620613477513e-08 -8.285757663922922e-09 3.1758620613477513e-08 0.00425198795164184" pbc="T T T"
H        1.40307756       0.81006721      10.00000000        3       1.00000000       0.00000000       0.00000000       0.00000000       0.00000000       0.00000000       0.00000000
H        4.20923268       0.81006721      10.00000000        3       1.00000000       0.00000000       0.00000000       0.00000000       0.00000000       0.00000000       0.00000000
H        0.00000000       3.24026883      10.00000000        3       1.00000000       0.00000000       0.00000000       0.00000000       0.00000000       0.00000000       0.00000000
H        2.80615512       3.24026883      10.00000000        3       1.00000000       0.00000000       0.00000000       0.00000000       0.00000000       0.00000000       0.00000000
H        0.00000000       1.62013441      12.29121606        2       1.00000000       0.00000000       0.00000000       0.00000000       0.00000000       0.00000000       0.00000000
H        2.80615512       1.62013441      12.29121606        2       1.00000000       0.00000000       0.00000000       0.00000000       0.00000000       0.00000000       0.00000000
H        1.40307756       4.05033604      12.29121606        2       1.00000000       0.00000000       0.00000000       0.00000000       0.00000000       0.00000000       0.00000000
H        4.20923268       4.05033604      12.29121606        2       1.00000000       0.00000000       0.00000000       0.00000000       0.00000000       0.00000000       0.00000000
H        0.00000000       0.00000000      14.58243212        1       1.00000000       0.00000000       0.00000000       0.00000000       0.00000000       0.00000000       0.00000000
H        2.80615512       0.00000000      14.58243212        1       1.00000000       0.00000000       0.00000000       0.00000000       0.00000000       0.00000000       0.00000000
H        1.40307756       2.43020162      14.58243212        1       1.00000000       0.00000000       0.00000000       0.00000000       0.00000000       0.00000000       0.00000000
H        4.20923268       2.43020162      14.58243212        1       1.00000000       0.00000000       0.00000000       0.00000000       0.00000000       0.00000000       0.00000000
H        2.81627065       3.22531641      16.81311601        0       1.00000000      -0.00000011       0.00000358       0.00000321       0.00000607      -0.00000019      -0.00000078
H        5.60841618       3.25286487      16.78888541        0       1.00000000       0.00000014      -0.00000023       0.00000089      -0.00000122       0.00000720       0.00000047
H        1.40928826       4.06918863      19.01644041        0       1.00000000      -0.00000086       0.00000140       0.00000193      -0.00000137      -0.00000704      -0.00000152
H        1.40697582       0.82266298      16.78888249        0       1.00000000      -0.00000036       0.00000398      -0.00000307       0.00000157       0.00000234      -0.00000348
H        4.19912145       0.79511352      16.81312124        0       1.00000000      -0.00000152       0.00000197      -0.00000156       0.00000197      -0.00000362      -0.00000131
H        5.60610671       1.63898814      19.01644263        0       1.00000000       0.00000251       0.00000005       0.00000204      -0.00000160       0.00000260       0.00000014
18
Lattice="5.612310241546866 0.0 0.0 0.0 4.860403243099165 0.0 0.0 0.0 24.582432123328676" Properties=species:S:1:pos:R:3:tags:I:1:masses:R:1:momenta:R:3:forces:R:3 KEmax=23.26679191048647 iter=87083 volume=670.5618179858607 ns_energy=-11.64516140143868 last_walked_iter_clone=86945 energy=-11.645161401490045 stress="0.00823288463483294 5.70241272206032e-09 -8.285757663922922e-09 5.70241272206032e-09 0.008225759313765577 3.1758620613477513e-08 -8.285757663922922e-09 3.1758620613477513e-08 0.00425198795164184" pbc="T T T"
H        1.40307756       0.81006721      10.00000000        3       1.00000000       0.00000000       0.00000000       0.00000000       0.00000000       0.00000000       0.00000000
H        4.20923268       0.81006721      10.00000000        3       1.00000000       0.00000000       0.00000000       0.00000000       0.00000000       0.00000000       0.00000000
H        0.00000000       3.24026883      10.00000000        3       1.00000000       0.00000000       0.00000000       0.00000000       0.00000000       0.00000000       0.00000000
H        2.80615512       3.24026883      10.00000000        3       1.00000000       0.00000000       0.00000000       0.00000000       0.00000000       0.00000000       0.00000000
H        0.00000000       1.62013441      12.29121606        2       1.00000000       0.00000000       0.00000000       0.00000000       0.00000000       0.00000000       0.00000000
H        2.80615512       1.62013441      12.29121606        2       1.00000000       0.00000000       0.00000000       0.00000000       0.00000000       0.00000000       0.00000000
H        1.40307756       4.05033604      12.29121606        2       1.00000000       0.00000000       0.00000000       0.00000000       0.00000000       0.00000000       0.00000000
H        4.20923268       4.05033604      12.29121606        2       1.00000000       0.00000000       0.00000000       0.00000000       0.00000000       0.00000000       0.00000000
H        0.00000000       0.00000000      14.58243212        1       1.00000000       0.00000000       0.00000000       0.00000000       0.00000000       0.00000000       0.00000000
H        2.80615512       0.00000000      14.58243212        1       1.00000000       0.00000000       0.00000000       0.00000000       0.00000000       0.00000000       0.00000000
H        1.40307756       2.43020162      14.58243212        1       1.00000000       0.00000000       0.00000000       0.00000000       0.00000000       0.00000000       0.00000000
H        4.20923268       2.43020162      14.58243212        1       1.00000000       0.00000000       0.00000000       0.00000000       0.00000000       0.00000000       0.00000000
H        2.81626926       3.22531680      16.81312110        0       1.00000000      -0.00000240      -0.00000014       0.00000462       0.00000607      -0.00000019      -0.00000078
H        5.60841484       3.25286260      16.78888284        0       1.00000000       0.00000286      -0.00000311       0.00000135      -0.00000122       0.00000720       0.00000047
H        1.40928638       4.06918869      19.01644334        0       1.00000000       0.00000253      -0.00000174      -0.00000371      -0.00000137      -0.00000704      -0.00000152
H        1.40697328       0.82266291      16.78888201        0       1.00000000      -0.00000005      -0.00000008      -0.00000468       0.00000157       0.00000234      -0.00000348
H        4.19911988       0.79511466      16.81311713        0       1.00000000      -0.00000331      -0.00000396       0.00000010       0.00000197      -0.00000362      -0.00000131
H        5.60610200       1.63898482      19.01644276        0       1.00000000       0.00000051      -0.00000145      -0.00000083      -0.00000160       0.00000260       0.00000014
18
Lattice="5.612310241546866 0.0 0.0 0.0 4.860403243099165 0.0 0.0 0.0 24.582432123328676" Properties=species:S:1:pos:R:3:tags:I:1:masses:R:1:momenta:R:3:forces:R:3 KEmax=23.26679191048647 iter=87083 volume=670.5618179858607 ns_energy=-11.645161401437955 last_walked_iter_clone=87052 energy=-11.645161401490045 stress="0.00823288463483294 5.70241272206032e-09 -8.285757663922922e-09 5.70241272206032e-09 0.008225759313765577 3.1758620613477513e-08 -8.285757663922922e-09 3.1758620613477513e-08 0.00425198795164184" pbc="T T T"
H        1.40307756       0.81006721      10.00000000        3       1.00000000       0.00000000       0.00000000       0.00000000       0.00000000       0.00000000       0.00000000
H        4.20923268       0.81006721      10.00000000        3       1.00000000       0.00000000       0.00000000       0.00000000       0.00000000       0.00000000       0.00000000
H        0.00000000       3.24026883      10.00000000        3       1.00000000       0.00000000       0.00000000       0.00000000       0.00000000       0.00000000       0.00000000
H        2.80615512       3.24026883      10.00000000        3       1.00000000       0.00000000       0.00000000       0.00000000       0.00000000       0.00000000       0.00000000
H        0.00000000       1.62013441      12.29121606        2       1.00000000       0.00000000       0.00000000       0.00000000       0.00000000       0.00000000       0.00000000
H        2.80615512       1.62013441      12.29121606        2       1.00000000       0.00000000       0.00000000       0.00000000       0.00000000       0.00000000       0.00000000
H        1.40307756       4.05033604      12.29121606        2       1.00000000       0.00000000       0.00000000       0.00000000       0.00000000       0.00000000       0.00000000
H        4.20923268       4.05033604      12.29121606        2       1.00000000       0.00000000       0.00000000       0.00000000       0.00000000       0.00000000       0.00000000
H        0.00000000       0.00000000      14.58243212        1       1.00000000       0.00000000       0.00000000       0.00000000       0.00000000       0.00000000       0.00000000
H        2.80615512       0.00000000      14.58243212        1       1.00000000       0.00000000       0.00000000       0.00000000       0.00000000       0.00000000       0.00000000
H        1.40307756       2.43020162      14.58243212        1       1.00000000       0.00000000       0.00000000       0.00000000       0.00000000       0.00000000       0.00000000
H        4.20923268       2.43020162      14.58243212        1       1.00000000       0.00000000       0.00000000       0.00000000       0.00000000       0.00000000       0.00000000
H        2.81626985       3.22531801      16.81311939        0       1.00000000       0.00000230       0.00000161      -0.00000148       0.00000607      -0.00000019      -0.00000078
H        5.60841353       3.25286534      16.78888563        0       1.00000000      -0.00000195       0.00000003       0.00000368      -0.00000122       0.00000720       0.00000047
H        1.40928704       4.06918858      19.01644309        0       1.00000000      -0.00000132      -0.00000096      -0.00000074      -0.00000137      -0.00000704      -0.00000152