18
Lattice="5.612310241546866 0.0 0.0 0.0 4.860403243099165 0.0 0.0 0.0 24.582432123328676" Properties=species:S:1:pos:R:3:tags:I:1:masses:R:1:momenta:R:3:forces:R:3 KEmax=23.26679191048647 iter=57108 volume=670.5618179858607 ns_energy=-11.638031158401368 last_walked_iter_clone=57016 energy=-11.63803141249593 stress="0.02259469945617901 9.313906769191774e-08 -1.4171841324208714e-06 9.313906769191774e-08 0.022706723720089587 -2.8643468971475845e-06 -1.4171841324208714e-06 -2.8643468971475845e-06 0.01228076933348162" pbc="T T F"
H        1.40307756       0.81006721      10.00000000        3       1.00000000       0.00000000       0.00000000       0.00000000       0.00000000       0.00000000       0.00000000
H        4.20923268       0.81006721      10.00000000        3       1.00000000       0.00000000       0.00000000       0.00000000       0.00000000       0.00000000       0.00000000
H        0.00000000       3.24026883      10.00000000        3       1.00000000       0.00000000       0.00000000       0.00000000       0.00000000       0.00000000       0.00000000
H        2.80615512       3.24026883      10.00000000        3       1.00000000       0.00000000       0.00000000       0.00000000       0.00000000       0.00000000       0.00000000
H        0.00000000       1.62013441      12.29121606        2       1.00000000       0.00000000       0.00000000       0.00000000       0.00000000       0.00000000       0.00000000
H        2.80615512       1.62013441      12.29121606        2       1.00000000       0.00000000       0.00000000       0.00000000       0.00000000       0.00000000       0.00000000
H        1.40307756       4.05033604      12.29121606        2       1.00000000       0.00000000       0.00000000       0.00000000       0.00000000       0.00000000       0.00000000
H        4.20923268       4.05033604      12.29121606        2       1.00000000       0.00000000       0.00000000       0.00000000       0.00000000       0.00000000       0.00000000
H        0.00000000       0.00000000      14.58243212        1       1.00000000       0.00000000       0.00000000       0.00000000       0.00000000       0.00000000       0.00000000
H        2.80615512       0.00000000      14.58243212        1       1.00000000       0.00000000       0.00000000       0.00000000       0.00000000       0.00000000       0.00000000
H        1.40307756       2.43020162      14.58243212        1       1.00000000       0.00000000       0.00000000       0.00000000       0.00000000       0.00000000       0.00000000
H        4.20923268       2.43020162      14.58243212        1       1.00000000       0.00000000       0.00000000       0.00000000       0.00000000       0.00000000       0.00000000
H        4.20908495       4.05035950       7.77127628        0       1.00000000       0.00014595      -0.00007952      -0.00001855      -0.00023429       0.00016898      -0.00008564
H       -0.00006011       1.62025610       7.77140115        0       1.00000000      -0.00037323       0.00004036      -0.00005659       0.00020873      -0.00031375       0.00006856
H        1.41270966       4.05024413      16.81105813        0       1.00000000      -0.00012145      -0.00020629      -0.00017789      -0.00010677       0.00020495       0.00054591
H        1.40306875       4.05045349       7.77144661        0       1.00000000      -0.00006304       0.00015664      -0.00010847       0.00000621       0.00023648      -0.00014362
H        5.60240051       1.62002387      16.81104198        0       1.00000000      -0.00039162       0.00008162       0.00016762       0.00003946      -0.00004761      -0.00033761
H        2.80611553       1.62007670       7.77137593        0       1.00000000      -0.00001109      -0.00018068       0.00001039      -0.00020442      -0.00025024       0.00009496
18
Lattice="5.612310241546866 0.0 0.0 0.0 4.860403243099165 0.0 0.0 0.0 24.582432123328676" Properties=species:S:1:pos:R:3:tags:I:1:masses:R:1:momenta:R:3:forces:R:3 KEmax=23.26679191048647 iter=57108 volume=670.5618179858607 ns_energy=-11.638031158927033 last_walked_iter_clone=57094 energy=-11.63803141249593 stress="0.02259469945617901 9.313906769191774e-08 -1.4171841324208714e-06 9.313906769191774e-08 0.022706723720089587 -2.8643468971475845e-06 -1.4171841324208714e-06 -2.8643468971475845e-06 0.01228076933348162" pbc="T T F"
H        1.40307756       0.81006721      10.00000000        3       1.00000000       0.00000000       0.00000000       0.00000000       0.00000000       0.00000000       0.00000000
H        4.20923268       0.81006721      10.00000000        3       1.00000000       0.00000000       0.00000000       0.00000000       0.00000000       0.00000000       0.00000000
H        0.00000000       3.24026883      10.00000000        3       1.00000000       0.00000000       0.00000000       0.00000000       0.00000000       0.00000000       0.00000000
H        2.80615512       3.24026883      10.00000000        3       1.00000000       0.00000000       0.00000000       0.00000000       0.00000000       0.00000000       0.00000000
H        0.00000000       1.62013441      12.29121606        2       1.00000000       0.00000000       0.00000000       0.00000000       0.00000000       0.00000000       0.00000000
H        2.80615512       1.62013441      12.29121606        2       1.00000000       0.00000000       0.00000000       0.00000000       0.00000000       0.00000000       0.00000000
H        1.40307756       4.05033604      12.29121606        2       1.00000000       0.00000000       0.00000000       0.00000000       0.00000000       0.00000000       0.00000000
H        4.20923268       4.05033604      12.29121606        2       1.00000000       0.00000000       0.00000000       0.00000000       0.00000000       0.00000000       0.00000000
H        0.00000000       0.00000000      14.58243212        1       1.00000000       0.00000000       0.00000000       0.00000000       0.00000000       0.00000000       0.00000000
H        2.80615512       0.00000000      14.58243212        1       1.00000000       0.00000000       0.00000000       0.00000000       0.00000000       0.00000000       0.00000000
H        1.40307756       2.43020162      14.58243212        1       1.00000000       0.00000000       0.00000000       0.00000000       0.00000000       0.00000000       0.00000000
H        4.20923268       2.43020162      14.58243212        1       1.00000000       0.00000000       0.00000000       0.00000000       0.00000000       0.00000000       0.00000000
H        4.20920155       4.05036033       7.77135743        0       1.00000000       0.00005118       0.00024426       0.00007370      -0.00023429       0.00016898      -0.00008564
H        5.61248099       1.62020399       7.77142460        0       1.00000000      -0.00013481      -0.00011235      -0.00011707       0.00020873      -0.00031375       0.00006856
H        1.41291309       4.05007268      16.81126547        0       1.00000000      -0.00013205      -0.00022710       0.00005192      -0.00010677       0.00020495       0.00054591
H        1.40299274       4.05037712       7.77140649        0       1.00000000      -0.00005601      -0.00000109      -0.00001167       0.00000621       0.00023648      -0.00014362
H        5.60228860       1.61971616      16.81105751        0       1.00000000      -0.00036133      -0.00005090       0.00007294       0.00003946      -0.00004761      -0.00033761
H        2.80599325       1.62015855       7.77131099        0       1.00000000      -0.00009249       0.00005629       0.00012617      -0.00020442      -0.00025024       0.00009496
18
Lattice="5.612310241546866 0.0 0.0 0.0 4.860403243099165 0.0 0.0 0.0 24.582432123328676" Properties=species:S:1:pos:R:3:tags:I:1:masses:R:1:momenta:R:3:forces:R:3 KEmax=23.26679191048647 iter=57108 volume=670.5618179858607 ns_energy=-11.638031154890006 last_walked_iter_clone=57054 energy=-11.63803141249593 stress="0.02259469945617901 9.313906769191774e-08 -1.4171841324208714e-06 9.313906769191774e-08 0.022706723720089587 -2.8643468971475845e-06 -1.4171841324208714e-06 -2.8643468971475845e-06 0.01228076933348162" pbc="T T F"
H        1.40307756       0.81006721      10.00000000        3       1.00000000       0.00000000       0.00000000       0.00000000       0.00000000       0.00000000       0.00000000
H        4.20923268       0.81006721      10.00000000        3       1.00000000       0.00000000       0.00000000       0.00000000       0.00000000       0.00000000       0.00000000
H        0.00000000       3.24026883      10.00000000        3       1.00000000       0.00000000       0.00000000       0.00000000       0.00000000       0.00000000       0.00000000
H        2.80615512       3.24026883      10.00000000        3       1.00000000       0.00000000       0.00000000       0.00000000       0.00000000       0.00000000       0.00000000
H        0.00000000       1.62013441      12.29121606        2       1.00000000       0.00000000       0.00000000       0.00000000       0.00000000       0.00000000       0.00000000
H        2.80615512       1.62013441      12.29121606        2       1.00000000       0.00000000       0.00000000       0.00000000       0.00000000       0.00000000       0.00000000
H        1.40307756       4.05033604      12.29121606        2       1.00000000       0.00000000       0.00000000       0.00000000       0.00000000       0.00000000       0.00000000
H        4.20923268       4.05033604      12.29121606        2       1.00000000       0.00000000       0.00000000       0.00000000       0.00000000       0.00000000       0.00000000
H        0.00000000       0.00000000      14.58243212        1       1.00000000       0.00000000       0.00000000       0.00000000       0.00000000       0.00000000       0.00000000
H        2.80615512       0.00000000      14.58243212        1       1.00000000       0.00000000       0.00000000       0.00000000       0.00000000       0.00000000       0.00000000
H        1.40307756       2.43020162      14.58243212        1       1.00000000       0.00000000       0.00000000       0.00000000       0.00000000       0.00000000       0.00000000
H        4.20923268       2.43020162      14.58243212        1       1.00000000       0.00000000       0.00000000       0.00000000       0.00000000       0.00000000       0.00000000
H        4.20891242       4.05014489       7.77145007        0       1.00000000       0.00003780       0.00013543      -0.00008989      -0.00023429       0.00016898      -0.00008564
H        5.61213127       1.61995407       7.77127761        0       1.00000000       0.00003601      -0.00026394       0.00020095       0.00020873      -0.00031375       0.00006856
H        1.41310256       4.05044934      16.81113583        0       1.00000000       0.00014442      -0.00016477       0.00017835      -0.00010677       0.00020495       0.00054591
H        1.40282284       4.05016431       7.77117839        0       1.00000000       0.00009672       0.00012755      -0.00002746       0.00000621       0.00023648      -0.00014362
H        5.60244045       1.62016654      16.81121337        0       1.00000000      -0.00008392       0.00023667       0.00000118       0.00003946      -0.00004761      -0.00033761
H        2.80596022       1.61999972       7.77139036        0       1.00000000       0.00019894      -0.00017352      -0.00008532      -0.00020442      -0.00025024       0.00009496
18
Lattice="5.612310241546866 0.0 0.0 0.0 4.860403243099165 0.0 0.0 0.0 24.582432123328676" Properties=species:S:1:pos:R:3:tags:I:1:masses:R:1:momenta:R:3:forces:R:3 KEmax=23.26679191048647 iter=57108 volume=670.5618179858607 ns_energy=-11.638031162503177 last_walked_iter_clone=56965 energy=-11.63803141249593 stress="0.02259469945617901 9.313906769191774e-08 -1.4171841324208714e-06 9.313906769191774e-08 0.022706723720089587 -2.8643468971475845e-06 -1.4171841324208714e-06 -2.8643468971475845e-06 0.01228076933348162" pbc="T T F"
H        1.40307756       0.81006721      10.00000000        3       1.00000000       0.00000000       0.00000000       0.00000000       0.00000000       0.00000000       0.00000000
H        4.20923268       0.81006721      10.00000000        3       1.00000000       0.00000000       0.00000000       0.00000000       0.00000000       0.00000000       0.00000000
H        0.00000000       3.24026883      10.00000000        3       1.00000000       0.00000000       0.00000000       0.00000000       0.00000000       0.00000000       0.00000000
H        2.80615512       3.24026883      10.00000000        3       1.00000000       0.00000000       0.00000000       0.00000000       0.00000000       0.00000000       0.00000000
H        0.00000000       1.62013441      12.29121606        2       1.00000000       0.00000000       0.00000000       0.00000000       0.00000000       0.00000000       0.00000000
H        2.80615512       1.62013441      12.29121606        2       1.00000000       0.00000000       0.00000000       0.00000000       0.00000000       0.00000000       0.00000000
H        1.40307756       4.05033604      12.29121606        2       1.00000000       0.00000000       0.00000000       0.00000000       0.00000000       0.00000000       0.00000000
H        4.20923268       4.05033604      12.29121606        2       1.00000000       0.00000000       0.00000000       0.00000000       0.00000000       0.00000000       0.00000000
H        0.00000000       0.00000000      14.58243212        1       1.00000000       0.00000000       0.00000000       0.00000000       0.00000000       0.00000000       0.00000000
H        2.80615512       0.00000000      14.58243212        1       1.00000000       0.00000000       0.00000000       0.00000000       0.00000000       0.00000000       0.00000000
H        1.40307756       2.43020162      14.58243212        1       1.00000000       0.00000000       0.00000000       0.00000000       0.00000000       0.00000000       0.00000000
H        4.20923268       2.43020162      14.58243212        1       1.00000000       0.00000000       0.00000000       0.00000000       0.00000000       0.00000000       0.00000000
H        4.20912502       4.05024092       7.77121532        0       1.00000000      -0.00015825      -0.00016280       0.00021025      -0.00023429       0.00016898      -0.00008564
H       -0.00005517       1.62014498       7.77132796        0       1.00000000      -0.00022894      -0.00002014      -0.00033226       0.00020873      -0.00031375       0.00006856
H        1.41318983       4.05019657      16.81125389        0       1.00000000       0.00004419      -0.00008524       0.00022678      -0.00010677       0.00020495       0.00054591
H        1.40312580       4.05026806       7.77133810        0       1.00000000       0.00017474       0.00002678      -0.00006349       0.00000621       0.00023648      -0.00014362
H        5.60231896       1.61993477      16.81091231        0       1.00000000      -0.00004529       0.00014421       0.00012903       0.00003946      -0.00004761      -0.00033761
H        2.80609532       1.62004869       7.77130774        0       1.00000000      -0.00008133      -0.00008774      -0.00017812      -0.00020442      -0.00025024       0.00009496
18
Lattice="5.612310241546866 0.0 0.0 0.0 4.860403243099165 0.0 0.0 0.0 24.582432123328676" Properties=species:S:1:pos:R:3:tags:I:1:masses:R:1:momenta:R:3:forces:R:3 KEmax=23.26679191048647 iter=57108 volume=670.5618179858607 ns_energy=-11.638031149084346 last_walked_iter_clone=56942 energy=-11.63803141249593 stress="0.02259469945617901 9.313906769191774e-08 -1.4171841324208714e-06 9.313906769191774e-08 0.022706723720089587 -2.8643468971475845e-06 -1.4171841324208714e-06 -2.8643468971475845e-06 0.01228076933348162" pbc="T T F"
H        1.40307756       0.81006721      10.00000000        3       1.00000000       0.00000000       0.00000000       0.00000000       0.00000000       0.00000000       0.00000000
H        4.20923268       0.81006721      10.00000000        3       1.00000000       0.00000000       0.00000000       0.00000000       0.00000000       0.00000000       0.00000000
H        0.00000000       3.24026883      10.00000000        3       1.00000000       0.00000000       0.00000000       0.00000000       0.00000000       0.00000000       0.00000000
H        2.80615512       3.24026883      10.00000000        3       1.00000000       0.00000000       0.00000000       0.00000000       0.00000000       0.00000000       0.00000000
H        0.00000000       1.62013441      12.29121606        2       1.00000000       0.00000000       0.00000000       0.00000000       0.00000000       0.00000000       0.00000000
H        2.80615512       1.62013441      12.29121606        2       1.00000000       0.00000000       0.00000000       0.00000000       0.00000000       0.00000000       0.00000000
H        1.40307756       4.05033604      12.29121606        2       1.00000000       0.00000000       0.00000000       0.00000000       0.00000000       0.00000000       0.00000000
H        4.20923268       4.05033604      12.29121606        2       1.00000000       0.00000000       0.00000000       0.00000000       0.00000000       0.00000000       0.00000000
H        0.00000000       0.00000000      14.58243212        1       1.00000000       0.00000000       0.00000000       0.00000000       0.00000000       0.00000000       0.00000000
H        2.80615512       0.00000000      14.58243212        1       1.00000000       0.00000000       0.00000000       0.00000000       0.00000000       0.00000000       0.00000000
H        1.40307756       2.43020162      14.58243212        1       1.00000000       0.00000000       0.00000000       0.00000000       0.00000000       0.00000000       0.00000000
H        4.20923268       2.43020162      14.58243212        1       1.00000000       0.00000000       0.00000000       0.00000000       0.00000000       0.00000000       0.00000000
H        4.20913442       4.05057930       7.77124326        0       1.00000000       0.00003461      -0.00007392       0.00007213      -0.00023429       0.00016898      -0.00008564
H        5.61221012       1.62032122       7.77134486        0       1.00000000      -0.00005217      -0.00009194       0.00007904       0.00020873      -0.00031375       0.00006856
H        1.41298209       4.04981771      16.81099990        0       1.00000000      -0.00012429      -0.00001013       0.00032519      -0.00010677       0.00020495       0.00054591
H        1.40306586       4.05048312       7.77130861        0       1.00000000      -0.00030009       0.00009008      -0.00001491       0.00000621       0.00023648      -0.00014362
H        5.60225602       1.61961581      16.81113466        0       1.00000000      -0.00017591       0.00001466      -0.00002228       0.00003946      -0.00004761      -0.00033761
H        2.80599041       1.62023693       7.77155540        0       1.00000000       0.00018155       0.00012578       0.00004304      -0.00020442      -0.00025024       0.00009496
18
Lattice="5.612310241546866 0.0 0.0 0.0 4.860403243099165 0.0 0.0 0.0 24.582432123328676" Properties=species:S:1:pos:R:3:tags:I:1:masses:R:1:momenta:R:3:forces:R:3 KEmax=23.26679191048647 iter=57108 volume=670.5618179858607 ns_energy=-11.638031160176372 last_walked_iter_clone=57029 energy=-11.63803141249593 stress="0.02259469945617901 9.313906769191774e-08 -1.4171841324208714e-06 9.313906769191774e-08 0.022706723720089587 -2.8643468971475845e-06 -1.4171841324208714e-06 -2.8643468971475845e-06 0.01228076933348162" pbc="T T F"
H        1.40307756       0.81006721      10.00000000        3       1.00000000       0.00000000       0.00000000       0.00000000       0.00000000       0.00000000       0.00000000
H        4.20923268       0.81006721      10.00000000        3       1.00000000       0.00000000       0.00000000       0.00000000       0.00000000       0.00000000       0.00000000
H        0.00000000       3.24026883      10.00000000        3       1.00000000       0.00000000       0.00000000       0.00000000       0.00000000       0.00000000       0.00000000
H        2.80615512       3.24026883      10.00000000        3       1.00000000       0.00000000       0.00000000       0.00000000       0.00000000       0.00000000       0.00000000
H        0.00000000       1.62013441      12.29121606        2       1.00000000       0.00000000       0.00000000       0.00000000       0.00000000       0.00000000       0.00000000
H        2.80615512       1.62013441      12.29121606        2       1.00000000       0.00000000       0.00000000       0.00000000       0.00000000       0.00000000       0.00000000
H        1.40307756       4.05033604      12.29121606        2       1.00000000       0.00000000       0.00000000       0.00000000       0.00000000       0.00000000       0.00000000
H        4.20923268       4.05033604      12.29121606        2       1.00000000       0.00000000       0.00000000       0.00000000       0.00000000       0.00000000       0.00000000
H        0.00000000       0.00000000      14.58243212        1       1.00000000       0.00000000       0.00000000       0.00000000       0.00000000       0.00000000       0.00000000
H        2.80615512       0.00000000      14.58243212        1       1.00000000       0.00000000       0.00000000       0.00000000       0.00000000       0.00000000       0.00000000
H        1.40307756       2.43020162      14.58243212        1       1.00000000       0.00000000       0.00000000       0.00000000       0.00000000       0.00000000       0.00000000
H        4.20923268       2.43020162      14.58243212        1       1.00000000       0.00000000       0.00000000       0.00000000       0.00000000       0.00000000       0.00000000
H        4.20949696       4.05037450       7.77127066        0       1.00000000      -0.00001514      -0.00009347      -0.00001416      -0.00023429       0.00016898      -0.00008564
H        0.00010877       1.62015808       7.77137354        0       1.00000000       0.00001133       0.00036786      -0.00017534       0.00020873      -0.00031375       0.00006856
H        1.41302988       4.04982704      16.81103944        0       1.00000000      -0.00002477      -0.00019877      -0.00012216      -0.00010677       0.00020495       0.00054591
H        1.40333939       4.05038896       7.77158392        0       1.00000000      -0.00005476      -0.00008168       0.00007994       0.00000621       0.00023648      -0.00014362
H        5.60252314       1.61982254      16.81111009        0       1.00000000       0.00007480       0.00000448       0.00004320       0.00003946      -0.00004761      -0.00033761
H        2.80626231       1.62019500       7.77134864        0       1.00000000       0.00011671       0.00031178       0.00003979      -0.00020442      -0.00025024       0.00009496
18
Lattice="5.612310241546866 0.0 0.0 0.0 4.860403243099165 0.0 0.0 0.0 24.582432123328676" Properties=species:S:1:pos:R:3:tags:I:1:masses:R:1:momenta:R:3:forces:R:3 KEmax=23.26679191048647 iter=57108 volume=670.5618179858607 ns_energy=-11.638031163669503 last_walked_iter_clone=57065 energy=-11.63803141249593 stress="0.02259469945617901 9.313906769191774e-08 -1.4171841324208714e-06 9.313906769191774e-08 0.022706723720089587 -2.8643468971475845e-06 -1.4171841324208714e-06 -2.8643468971475845e-06 0.01228076933348162" pbc="T T F"
H        1.40307756       0.81006721      10.00000000        3       1.00000000       0.00000000       0.00000000       0.00000000       0.00000000       0.00000000       0.00000000
H        4.20923268       0.81006721      10.00000000        3       1.00000000       0.00000000       0.00000000       0.00000000       0.00000000       0.00000000       0.00000000
H        0.00000000       3.24026883      10.00000000        3       1.00000000       0.00000000       0.00000000       0.00000000       0.00000000       0.00000000       0.00000000
H        2.80615512       3.24026883      10.00000000        3       1.00000000       0.00000000       0.00000000       0.00000000       0.00000000       0.00000000       0.00000000
H        0.00000000       1.62013441      12.29121606        2       1.00000000       0.00000000       0.00000000       0.00000000       0.00000000       0.00000000       0.00000000
H        2.80615512       1.62013441      12.29121606        2       1.00000000       0.00000000       0.00000000       0.00000000       0.00000000       0.00000000       0.00000000
H        1.40307756       4.05033604      12.29121606        2       1.00000000       0.00000000       0.00000000       0.00000000       0.00000000       0.00000000       0.00000000
H        4.20923268       4.05033604      12.29121606        2       1.00000000       0.00000000       0.00000000       0.00000000       0.00000000       0.00000000       0.00000000
H        0.00000000       0.00000000      14.58243212        1       1.00000000       0.00000000       0.00000000       0.00000000       0.00000000       0.00000000       0.00000000
H        2.80615512       0.00000000      14.58243212        1       1.00000000       0.00000000       0.00000000       0.00000000       0.00000000       0.00000000       0.00000000
H        1.40307756       2.43020162      14.58243212        1       1.00000000       0.00000000       0.00000000       0.00000000       0.00000000       0.00000000       0.00000000
H        4.20923268       2.43020162      14.58243212        1       1.00000000       0.00000000       0.00000000       0.00000000       0.00000000       0.00000000       0.00000000
H        4.20942447       4.05030910       7.77133667        0       1.00000000      -0.00017216      -0.00010760       0.00020971      -0.00023429       0.00016898      -0.00008564
H       -0.00000807       1.62014992       7.77134128        0       1.00000000       0.00009534      -0.00000114      -0.00011404       0.00020873      -0.00031375       0.00006856
H        1.41294127       4.05009651      16.81118805        0       1.00000000      -0.00009572      -0.00018374      -0.00021220      -0.00010677       0.00020495       0.00054591
H        1.40302711       4.05033143       7.77133770        0       1.00000000       0.00004853      -0.00014644      -0.00016864       0.00000621       0.00023648      -0.00014362
H        5.60216869       1.62004879      16.81120196        0       1.00000000      -0.00021947      -0.00003324       0.00009438       0.00003946      -0.00004761      -0.00033761
H        2.80604124       1.62024295       7.77123951        0       1.00000000      -0.00004804       0.00013975       0.00028815      -0.00020442      -0.00025024       0.00009496
18
Lattice="5.612310241546866 0.0 0.0 0.0 4.860403243099165 0.0 0.0 0.0 24.582432123328676" Properties=species:S:1:pos:R:3:tags:I:1:masses:R:1:momenta:R:3:forces:R:3 KEmax=23.26679191048647 iter=57108 volume=670.5618179858607 ns_energy=-11.63803115684465 last_walked_iter_clone=57096 energy=-11.63803141249593 stress="0.02259469945617901 9.313906769191774e-08 -1.4171841324208714e-06 9.313906769191774e-08 0.022706723720089587 -2.8643468971475845e-06 -1.4171841324208714e-06 -2.8643468971475845e-06 0.01228076933348162" pbc="T T F"
H        1.40307756       0.81006721      10.00000000        3       1.00000000       0.00000000       0.00000000       0.00000000       0.00000000       0.00000000       0.00000000
H        4.20923268       0.81006721      10.00000000        3       1.00000000       0.00000000       0.00000000       0.00000000       0.00000000       0.00000000       0.00000000
H        0.00000000       3.24026883      10.00000000        3       1.00000000       0.00000000       0.00000000       0.00000000       0.00000000       0.00000000       0.00000000
H        2.80615512       3.24026883      10.00000000        3       1.00000000       0.00000000       0.00000000       0.00000000       0.00000000       0.00000000       0.00000000
H        0.00000000       1.62013441      12.29121606        2       1.00000000       0.00000000       0.00000000       0.00000000       0.00000000       0.00000000       0.00000000
H        2.80615512       1.62013441      12.29121606        2       1.00000000       0.00000000       0.00000000       0.00000000       0.00000000       0.00000000       0.00000000
H        1.40307756       4.05033604      12.29121606        2       1.00000000       0.00000000       0.00000000       0.00000000       0.00000000       0.00000000       0.00000000
H        4.20923268       4.05033604      12.29121606        2       1.00000000       0.00000000       0.00000000       0.00000000       0.00000000       0.00000000       0.00000000
H        0.00000000       0.00000000      14.58243212        1       1.00000000       0.00000000       0.00000000       0.00000000       0.00000000       0.00000000       0.00000000
H        2.80615512       0.00000000      14.58243212        1       1.00000000       0.00000000       0.00000000       0.00000000       0.00000000       0.00000000       0.00000000
H        1.40307756       2.43020162      14.58243212        1       1.00000000       0.00000000       0.00000000       0.00000000       0.00000000       0.00000000       0.00000000
H        4.20923268       2.43020162      14.58243212        1       1.00000000       0.00000000       0.00000000       0.00000000       0.00000000       0.00000000       0.00000000
H        4.20911825       4.05033058       7.77145749        0       1.00000000       0.00014322       0.00001481      -0.00015807      -0.00023429       0.00016898      -0.00008564
H       -0.00005494       1.62018395       7.77136318        0       1.00000000      -0.00006726       0.00006793       0.00006601       0.00020873      -0.00031375       0.00006856
H        1.41281440       4.05040922      16.81110063        0       1.00000000      -0.00022500      -0.00015858       0.00007121      -0.00010677       0.00020495       0.00054591