18
Lattice="5.612310241546866 0.0 0.0 0.0 4.860403243099165 0.0 0.0 0.0 24.582432123328676" Properties=species:S:1:pos:R:3:tags:I:1:masses:R:1:momenta:R:3 KEmax=23.26679191048647 iter=99 volume=670.5618179858607 ns_energy=61.44923425653937 last_walked_iter_clone=91 ns_P=0.0 config_n_global=99 ns_KE=21.298365293597065 pbc="T T F"
H        1.40307756       0.81006721      10.00000000        3       1.00000000       0.00000000       0.00000000       0.00000000
H        4.20923268       0.81006721      10.00000000        3       1.00000000       0.00000000       0.00000000       0.00000000
H        0.00000000       3.24026883      10.00000000        3       1.00000000       0.00000000       0.00000000       0.00000000
H        2.80615512       3.24026883      10.00000000        3       1.00000000       0.00000000       0.00000000       0.00000000
H        0.00000000       1.62013441      12.29121606        2       1.00000000       0.00000000       0.00000000       0.00000000
H        2.80615512       1.62013441      12.29121606        2       1.00000000       0.00000000       0.00000000       0.00000000
H        1.40307756       4.05033604      12.29121606        2       1.00000000       0.00000000       0.00000000       0.00000000
H        4.20923268       4.05033604      12.29121606        2       1.00000000       0.00000000       0.00000000       0.00000000
H        0.00000000       0.00000000      14.58243212        1       1.00000000       0.00000000       0.00000000       0.00000000
H        2.80615512       0.00000000      14.58243212        1       1.00000000       0.00000000       0.00000000       0.00000000
H        1.40307756       2.43020162      14.58243212        1       1.00000000       0.00000000       0.00000000       0.00000000
H        4.20923268       2.43020162      14.58243212        1       1.00000000       0.00000000       0.00000000       0.00000000
H        1.38296504       0.40618743       5.67664378        0       1.00000000      -0.73286995      -0.88879766       0.38905624
H        1.35315134       3.33565005       5.25613225        0       1.00000000       2.16076118      -1.49326301      -0.10335707
H        2.41043807       2.99104632      17.07192221        0       1.00000000      -0.68074902       0.10064570       1.52524403
H        1.71395330       0.87559925       7.25434847        0       1.00000000       4.28189438       0.58836685      -0.84114498
H        4.86490194       4.71844539      16.62377852        0       1.00000000       0.52142904       2.28175059       1.73810127
H        2.47573400       1.84889140       3.26142863        0       1.00000000       1.70188538       0.13718440       0.77856199
18
Lattice="5.612310241546866 0.0 0.0 0.0 4.860403243099165 0.0 0.0 0.0 24.582432123328676" Properties=species:S:1:pos:R:3:tags:I:1:masses:R:1:momenta:R:3 KEmax=23.26679191048647 iter=199 volume=670.5618179858607 ns_energy=14.561183370060094 last_walked_iter_clone=174 ns_P=0.0 config_n_global=199 ns_KE=22.356062998995977 pbc="T T F"
H        1.40307756       0.81006721      10.00000000        3       1.00000000       0.00000000       0.00000000       0.00000000
H        4.20923268       0.81006721      10.00000000        3       1.00000000       0.00000000       0.00000000       0.00000000
H        0.00000000       3.24026883      10.00000000        3       1.00000000       0.00000000       0.00000000       0.00000000
H        2.80615512       3.24026883      10.00000000        3       1.00000000       0.00000000       0.00000000       0.00000000
H        0.00000000       1.62013441      12.29121606        2       1.00000000       0.00000000       0.00000000       0.00000000
H        2.80615512       1.62013441      12.29121606        2       1.00000000       0.00000000       0.00000000       0.00000000
H        1.40307756       4.05033604      12.29121606        2       1.00000000       0.00000000       0.00000000       0.00000000
H        4.20923268       4.05033604      12.29121606        2       1.00000000       0.00000000       0.00000000       0.00000000
H        0.00000000       0.00000000      14.58243212        1       1.00000000       0.00000000       0.00000000       0.00000000
H        2.80615512       0.00000000      14.58243212        1       1.00000000       0.00000000       0.00000000       0.00000000
H        1.40307756       2.43020162      14.58243212        1       1.00000000       0.00000000       0.00000000       0.00000000
H        4.20923268       2.43020162      14.58243212        1       1.00000000       0.00000000       0.00000000       0.00000000
H        4.35188169       2.96845831       3.07821543        0       1.00000000       1.03007628      -2.33839539      -1.44311331
H        4.26320402       2.39288989       6.17429141        0       1.00000000      -1.18197910      -2.44630677      -0.98677326
H        1.29318821       1.63213037      20.69622101        0       1.00000000       1.71661114      -2.69177265       1.80109392
H        1.15660369       0.27589854       7.87351436        0       1.00000000      -1.07320613       0.49255577      -1.01269538
H        5.31554799       3.78167548      17.13534657        0       1.00000000       1.79031025       0.33843268       1.21332409
H        2.17426383       1.99181609       4.62737744        0       1.00000000       1.42924676      -2.21362052       0.39262504
18
Lattice="5.612310241546866 0.0 0.0 0.0 4.860403243099165 0.0 0.0 0.0 24.582432123328676" Properties=species:S:1:pos:R:3:tags:I:1:masses:R:1:momenta:R:3 KEmax=23.26679191048647 iter=299 volume=670.5618179858607 ns_energy=12.452653926778341 last_walked_iter_clone=156 ns_P=0.0 config_n_global=299 ns_KE=19.36644324954892 pbc="T T F"
H        1.40307756       0.81006721      10.00000000        3       1.00000000       0.00000000       0.00000000       0.00000000
H        4.20923268       0.81006721      10.00000000        3       1.00000000       0.00000000       0.00000000       0.00000000
H        0.00000000       3.24026883      10.00000000        3       1.00000000       0.00000000       0.00000000       0.00000000
H        2.80615512       3.24026883      10.00000000        3       1.00000000       0.00000000       0.00000000       0.00000000
H        0.00000000       1.62013441      12.29121606        2       1.00000000       0.00000000       0.00000000       0.00000000
H        2.80615512       1.62013441      12.29121606        2       1.00000000       0.00000000       0.00000000       0.00000000
H        1.40307756       4.05033604      12.29121606        2       1.00000000       0.00000000       0.00000000       0.00000000
H        4.20923268       4.05033604      12.29121606        2       1.00000000       0.00000000       0.00000000       0.00000000
H        0.00000000       0.00000000      14.58243212        1       1.00000000       0.00000000       0.00000000       0.00000000
H        2.80615512       0.00000000      14.58243212        1       1.00000000       0.00000000       0.00000000       0.00000000
H        1.40307756       2.43020162      14.58243212        1       1.00000000       0.00000000       0.00000000       0.00000000
H        4.20923268       2.43020162      14.58243212        1       1.00000000       0.00000000       0.00000000       0.00000000
H        0.36712816       2.54987800       7.93984679        0       1.00000000      -0.60140156       0.60627978       0.79236748
H        4.21717337       2.87202482       2.59703947        0       1.00000000       0.19824835       1.21672335      -0.00750030
H        3.46777545       4.45890718      19.97680767        0       1.00000000       2.44641778       0.02057283      -0.66741696
H        2.63232426       4.72395180       2.40995542        0       1.00000000      -0.03816253      -2.86813947      -2.96410247
H        5.45564965       2.14888643      22.13439762        0       1.00000000      -2.10587871       1.36626192      -1.12608018
H        0.59178703       4.23500296       6.29048676        0       1.00000000      -0.92434719      -0.31646255      -1.97169339
18
Lattice="5.612310241546866 0.0 0.0 0.0 4.860403243099165 0.0 0.0 0.0 24.582432123328676" Properties=species:S:1:pos:R:3:tags:I:1:masses:R:1:momenta:R:3 KEmax=23.26679191048647 iter=399 volume=670.5618179858607 ns_energy=10.842208383783301 last_walked_iter_clone=332 ns_P=0.0 config_n_global=399 ns_KE=19.062300953305897 pbc="T T F"
H        1.40307756       0.81006721      10.00000000        3       1.00000000       0.00000000       0.00000000       0.00000000
H        4.20923268       0.81006721      10.00000000        3       1.00000000       0.00000000       0.00000000       0.00000000
H        0.00000000       3.24026883      10.00000000        3       1.00000000       0.00000000       0.00000000       0.00000000
H        2.80615512       3.24026883      10.00000000        3       1.00000000       0.00000000       0.00000000       0.00000000
H        0.00000000       1.62013441      12.29121606        2       1.00000000       0.00000000       0.00000000       0.00000000
H        2.80615512       1.62013441      12.29121606        2       1.00000000       0.00000000       0.00000000       0.00000000
H        1.40307756       4.05033604      12.29121606        2       1.00000000       0.00000000       0.00000000       0.00000000
H        4.20923268       4.05033604      12.29121606        2       1.00000000       0.00000000       0.00000000       0.00000000
H        0.00000000       0.00000000      14.58243212        1       1.00000000       0.00000000       0.00000000       0.00000000
H        2.80615512       0.00000000      14.58243212        1       1.00000000       0.00000000       0.00000000       0.00000000
H        1.40307756       2.43020162      14.58243212        1       1.00000000       0.00000000       0.00000000       0.00000000
H        4.20923268       2.43020162      14.58243212        1       1.00000000       0.00000000       0.00000000       0.00000000
H        3.33270347       2.18987232       0.07859045        0       1.00000000      -0.76051880      -2.29339968      -0.31361102
H        5.30419000       2.18123510       5.62969563        0       1.00000000      -3.12997407       0.48949971       0.19634207
H        3.30004164       0.88338195      17.66781030        0       1.00000000       0.80360852      -2.76097416       0.90718377
H        1.08728161       1.89103523       2.66741500        0       1.00000000       0.04376476      -0.08815714       0.40924490
H        5.19104851       4.06389444      22.87461629        0       1.00000000       0.41426162       2.76869338      -0.95228980
H        1.49329530       3.83818055       6.97561406        0       1.00000000      -1.67916154       0.30753020      -1.08907095
18
Lattice="5.612310241546866 0.0 0.0 0.0 4.860403243099165 0.0 0.0 0.0 24.582432123328676" Properties=species:S:1:pos:R:3:tags:I:1:masses:R:1:momenta:R:3 KEmax=23.26679191048647 iter=499 volume=670.5618179858607 ns_energy=9.386327684045813 last_walked_iter_clone=417 ns_P=0.0 config_n_global=499 ns_KE=17.971963504693964 pbc="T T F"
H        1.40307756       0.81006721      10.00000000        3       1.00000000       0.00000000       0.00000000       0.00000000
H        4.20923268       0.81006721      10.00000000        3       1.00000000       0.00000000       0.00000000       0.00000000
H        0.00000000       3.24026883      10.00000000        3       1.00000000       0.00000000       0.00000000       0.00000000
H        2.80615512       3.24026883      10.00000000        3       1.00000000       0.00000000       0.00000000       0.00000000
H        0.00000000       1.62013441      12.29121606        2       1.00000000       0.00000000       0.00000000       0.00000000
H        2.80615512       1.62013441      12.29121606        2       1.00000000       0.00000000       0.00000000       0.00000000
H        1.40307756       4.05033604      12.29121606        2       1.00000000       0.00000000       0.00000000       0.00000000
H        4.20923268       4.05033604      12.29121606        2       1.00000000       0.00000000       0.00000000       0.00000000
H        0.00000000       0.00000000      14.58243212        1       1.00000000       0.00000000       0.00000000       0.00000000
H        2.80615512       0.00000000      14.58243212        1       1.00000000       0.00000000       0.00000000       0.00000000
H        1.40307756       2.43020162      14.58243212        1       1.00000000       0.00000000       0.00000000       0.00000000
H        4.20923268       2.43020162      14.58243212        1       1.00000000       0.00000000       0.00000000       0.00000000
H        4.37696688       3.87797358       7.65358700        0       1.00000000       2.43273335      -2.93248069      -0.15300738
H        0.32721199       0.89096975       4.42740344        0       1.00000000      -0.16869109       0.91761365      -0.21276326
H        1.66791201       3.70313406      19.37193668        0       1.00000000       0.50297756      -2.12130159      -0.43753122
H        2.09929056       3.31075021       6.08111948        0       1.00000000       0.45492583       0.53019969      -0.73779588
H        5.66855382       0.18694141      17.97788719        0       1.00000000       0.20102357      -0.92450539      -2.07506589
H        4.94520014       0.36005930       1.78486674        0       1.00000000       0.94106204      -1.14069808      -2.66881624
18
Lattice="5.612310241546866 0.0 0.0 0.0 4.860403243099165 0.0 0.0 0.0 24.582432123328676" Properties=species:S:1:pos:R:3:tags:I:1:masses:R:1:momenta:R:3 KEmax=23.26679191048647 iter=599 volume=670.5618179858607 ns_energy=8.03035542593156 last_walked_iter_clone=531 ns_P=0.0 config_n_global=599 ns_KE=16.501628667293144 pbc="T T F"
H        1.40307756       0.81006721      10.00000000        3       1.00000000       0.00000000       0.00000000       0.00000000
H        4.20923268       0.81006721      10.00000000        3       1.00000000       0.00000000       0.00000000       0.00000000
H        0.00000000       3.24026883      10.00000000        3       1.00000000       0.00000000       0.00000000       0.00000000
H        2.80615512       3.24026883      10.00000000        3       1.00000000       0.00000000       0.00000000       0.00000000
H        0.00000000       1.62013441      12.29121606        2       1.00000000       0.00000000       0.00000000       0.00000000
H        2.80615512       1.62013441      12.29121606        2       1.00000000       0.00000000       0.00000000       0.00000000
H        1.40307756       4.05033604      12.29121606        2       1.00000000       0.00000000       0.00000000       0.00000000
H        4.20923268       4.05033604      12.29121606        2       1.00000000       0.00000000       0.00000000       0.00000000
H        0.00000000       0.00000000      14.58243212        1       1.00000000       0.00000000       0.00000000       0.00000000
H        2.80615512       0.00000000      14.58243212        1       1.00000000       0.00000000       0.00000000       0.00000000
H        1.40307756       2.43020162      14.58243212        1       1.00000000       0.00000000       0.00000000       0.00000000
H        4.20923268       2.43020162      14.58243212        1       1.00000000       0.00000000       0.00000000       0.00000000
H        4.59725252       2.69471093       4.65879958        0       1.00000000       0.54899173      -1.74379933      -1.43616019
H        4.05320029       1.34676995       1.09579243        0       1.00000000       0.16450187       0.35616387      -0.65528517
H        0.23721693       2.16553685      19.77420094        0       1.00000000       1.85371726      -2.48825001       0.58516893
H        1.02285962       1.22093221       2.58656924        0       1.00000000      -1.47882791      -2.30971394      -0.57909499
H        5.69806217       2.42764872      17.15654332        0       1.00000000       1.35048849       0.29013330       0.02356231
H        1.66469930       1.71545441       6.74237840        0       1.00000000      -1.97506846       1.61855460      -0.87112278
18
Lattice="5.612310241546866 0.0 0.0 0.0 4.860403243099165 0.0 0.0 0.0 24.582432123328676" Properties=species:S:1:pos:R:3:tags:I:1:masses:R:1:momenta:R:3 KEmax=23.26679191048647 iter=699 volume=670.5618179858607 ns_energy=6.801221356826388 last_walked_iter_clone=565 ns_P=0.0 config_n_global=699 ns_KE=15.26072202945551 pbc="T T F"
H        1.40307756       0.81006721      10.00000000        3       1.00000000       0.00000000       0.00000000       0.00000000
H        4.20923268       0.81006721      10.00000000        3       1.00000000       0.00000000       0.00000000       0.00000000
H        0.00000000       3.24026883      10.00000000        3       1.00000000       0.00000000       0.00000000       0.00000000
H        2.80615512       3.24026883      10.00000000        3       1.00000000       0.00000000       0.00000000       0.00000000
H        0.00000000       1.62013441      12.29121606        2       1.00000000       0.00000000       0.00000000       0.00000000
H        2.80615512       1.62013441      12.29121606        2       1.00000000       0.00000000       0.00000000       0.00000000
H        1.40307756       4.05033604      12.29121606        2       1.00000000       0.00000000       0.00000000       0.00000000
H        4.20923268       4.05033604      12.29121606        2       1.00000000       0.00000000       0.00000000       0.00000000
H        0.00000000       0.00000000      14.58243212        1       1.00000000       0.00000000       0.00000000       0.00000000
H        2.80615512       0.00000000      14.58243212        1       1.00000000       0.00000000       0.00000000       0.00000000
H        1.40307756       2.43020162      14.58243212        1       1.00000000       0.00000000       0.00000000       0.00000000
H        4.20923268       2.43020162      14.58243212        1       1.00000000       0.00000000       0.00000000       0.00000000
H        3.62697521       4.99647549       4.23456000        0       1.00000000       0.66544963       1.35218241      -0.58438848
H        3.92450401       1.87523050       0.24460635        0       1.00000000      -0.74090220       0.73493231       1.34508671
H        3.64547598      -0.72180004      23.78130131        0       1.00000000      -0.89282259      -3.63577172       0.56567283
H        0.01423900       2.57500317       7.30532438        0       1.00000000      -0.10306603      -0.62928669       0.44829946
H        1.37325633       0.03400209      17.04437472        0       1.00000000      -0.47190280      -2.74733921      -1.14319324
H        2.24949838       2.53036164       3.12216478        0       1.00000000       0.62273180      -0.75863739      -0.16143686
18
Lattice="5.612310241546866 0.0 0.0 0.0 4.860403243099165 0.0 0.0 0.0 24.582432123328676" Properties=species:S:1:pos:R:3:tags:I:1:masses:R:1:momenta:R:3 KEmax=23.26679191048647 iter=799 volume=670.5618179858607 ns_energy=5.692585631780014 last_walked_iter_clone=779 ns_P=0.0 config_n_global=799 ns_KE=13.290603146857569 pbc="T T F"
H        1.40307756       0.81006721      10.00000000        3       1.00000000       0.00000000       0.00000000       0.00000000
H        4.20923268       0.81006721      10.00000000        3       1.00000000       0.00000000       0.00000000       0.00000000
H        0.00000000       3.24026883      10.00000000        3       1.00000000       0.00000000       0.00000000       0.00000000
H        2.80615512       3.24026883      10.00000000        3       1.00000000       0.00000000       0.00000000       0.00000000
H        0.00000000       1.62013441      12.29121606        2       1.00000000       0.00000000       0.00000000       0.00000000
H        2.80615512       1.62013441      12.29121606        2       1.00000000       0.00000000       0.00000000       0.00000000
H        1.40307756       4.05033604      12.29121606        2       1.00000000       0.00000000       0.00000000       0.00000000
H        4.20923268       4.05033604      12.29121606        2       1.00000000       0.00000000       0.00000000       0.00000000
H        0.00000000       0.00000000      14.58243212        1       1.00000000       0.00000000       0.00000000       0.00000000
H        2.80615512       0.00000000      14.58243212        1       1.00000000       0.00000000       0.00000000       0.00000000
H        1.40307756       2.43020162      14.58243212        1       1.00000000       0.00000000       0.00000000       0.00000000
H        4.20923268       2.43020162      14.58243212        1       1.00000000       0.00000000       0.00000000       0.00000000
H        3.33150957       1.49349406       6.73285160        0       1.00000000       1.65451483       0.28946005      -0.43571100
H        3.46783142       4.38152794       0.43154713        0       1.00000000      -0.35853745      -1.05725878       0.08451620
H        2.77995953       2.55111850      24.09465967        0       1.00000000      -0.81127450       1.33781884      -0.19696656
H        5.25511101       3.52772507       3.63704157        0       1.00000000       1.09496426      -1.10831394      -1.37828066
H        0.87878392       4.36323054      17.39121644        0       1.00000000      -2.68965125      -0.95374157       2.29089139
H        1.08660512       1.86021021       4.20387497        0       1.00000000       0.46856182       0.18827866      -1.36233360
18
Lattice="5.612310241546866 0.0 0.0 0.0 4.860403243099165 0.0 0.0 0.0 24.582432123328676" Properties=species:S:1:pos:R:3:tags:I:1:masses:R:1:momenta:R:3 KEmax=23.26679191048647 iter=899 volume=670.5618179858607 ns_energy=4.675448429507423 last_walked_iter_clone=773 ns_P=0.0 config_n_global=899 ns_KE=12.73389438455813 pbc="T T F"
H        1.40307756       0.81006721      10.00000000        3       1.00000000       0.00000000       0.00000000       0.00000000
H        4.20923268       0.81006721      10.00000000        3       1.00000000       0.00000000       0.00000000       0.00000000
H        0.00000000       3.24026883      10.00000000        3       1.00000000       0.00000000       0.00000000       0.00000000
H        2.80615512       3.24026883      10.00000000        3       1.00000000       0.00000000       0.00000000       0.00000000
H        0.00000000       1.62013441      12.29121606        2       1.00000000       0.00000000       0.00000000       0.00000000
H        2.80615512       1.62013441      12.29121606        2       1.00000000       0.00000000       0.00000000       0.00000000
H        1.40307756       4.05033604      12.29121606        2       1.00000000       0.00000000       0.00000000       0.00000000
H        4.20923268       4.05033604      12.29121606        2       1.00000000       0.00000000       0.00000000       0.00000000
H        0.00000000       0.00000000      14.58243212        1       1.00000000       0.00000000       0.00000000       0.00000000
H        2.80615512       0.00000000      14.58243212        1       1.00000000       0.00000000       0.00000000       0.00000000
H        1.40307756       2.43020162      14.58243212        1       1.00000000       0.00000000       0.00000000       0.00000000
H        4.20923268       2.43020162      14.58243212        1       1.00000000       0.00000000       0.00000000       0.00000000
H        3.79660832       2.56999327       0.02548486        0       1.00000000       0.36189080      -0.39974574      -0.35173591
H        2.92175372       3.27686414       4.63442252        0       1.00000000       0.35329999      -0.31071555       2.25028836
H        2.16915545       2.31796283      19.46343005        0       1.00000000      -2.11420639      -0.79711714      -1.88446883
H        5.65022129       0.36421473       3.72479668        0       1.00000000       1.83499715      -0.33057375       0.69881433
H        4.49195289       3.36082030      21.51745786        0       1.00000000       0.43072184      -1.72530534      -0.23040560
H        0.45931018       4.79249417       6.83166645        0       1.00000000      -1.78424377      -0.23538827       0.83222839
18
Lattice="5.612310241546866 0.0 0.0 0.0 4.860403243099165 0.0 0.0 0.0 24.582432123328676" Properties=species:S:1:pos:R:3:tags:I:1:masses:R:1:momenta:R:3 KEmax=23.26679191048647 iter=999 volume=670.5618179858607 ns_energy=3.7482044905697385 last_walked_iter_clone=941 ns_P=0.0 config_n_global=999 ns_KE=11.172641848296056 pbc="T T F"
H        1.40307756       0.81006721      10.00000000        3       1.00000000       0.00000000       0.00000000       0.00000000
H        4.20923268       0.81006721      10.00000000        3       1.00000000       0.00000000       0.00000000       0.00000000
H        0.00000000       3.24026883      10.00000000        3       1.00000000       0.00000000       0.00000000       0.00000000
H        2.80615512       3.24026883      10.00000000        3       1.00000000       0.00000000       0.00000000       0.00000000
H        0.00000000       1.62013441      12.29121606        2       1.00000000       0.00000000       0.00000000       0.00000000
H        2.80615512       1.62013441      12.29121606        2       1.00000000       0.00000000       0.00000000       0.00000000
H        1.40307756       4.05033604      12.29121606        2       1.00000000       0.00000000       0.00000000       0.00000000
H        4.20923268       4.05033604      12.29121606        2       1.00000000       0.00000000       0.00000000       0.00000000
H        0.00000000       0.00000000      14.58243212        1       1.00000000       0.00000000       0.00000000       0.00000000
H        2.80615512       0.00000000      14.58243212        1       1.00000000       0.00000000       0.00000000       0.00000000
H        1.40307756       2.43020162      14.58243212        1       1.00000000       0.00000000       0.00000000       0.00000000
H        4.20923268       2.43020162      14.58243212        1       1.00000000       0.00000000       0.00000000       0.00000000
H        4.20637019       2.54520962       8.28828743        0       1.00000000       0.61934911       1.88130444       0.14200625
H        0.17503939       3.31683664       2.53568212        0       1.00000000       0.72312826      -1.55257425       0.13748897
H        2.56910972       1.69712643      16.68546298        0       1.00000000      -0.20392058      -0.23401965      -0.38745778
H        2.34355434       0.51071355       1.31432487        0       1.00000000       1.35775971      -0.53868033      -0.82060862
H        0.66454754       1.32616977      18.61094226        0       1.00000000      -0.31748591      -2.42293545       1.02848588
H        0.41817043       1.99115201       4.46317380        0       1.00000000      -0.89820370       0.75796689      -1.99646552
18
Lattice="5.612310241546866 0.0 0.0 0.0 4.860403243099165 0.0 0.0 0.0 24.582432123328676" Properties=species:S:1:pos:R:3:tags:I:1:masses:R:1:momenta:R:3 KEmax=23.26679191048647 iter=1099 volume=670.5618179858607 ns_energy=2.9295980671746586 last_walked_iter_clone=1000 ns_P=0.0 config_n_global=1099 ns_KE=11.06090827419392 pbc="T T F"
H        1.40307756       0.81006721      10.00000000        3       1.00000000       0.00000000       0.00000000       0.00000000
H        4.20923268       0.81006721      10.00000000        3       1.00000000       0.00000000       0.00000000       0.00000000
H        0.00000000       3.24026883      10.00000000        3       1.00000000       0.00000000       0.00000000       0.00000000
H        2.80615512       3.24026883      10.00000000        3       1.00000000       0.00000000       0.00000000       0.00000000
H        0.00000000       1.62013441      12.29121606        2       1.00000000       0.00000000       0.00000000       0.00000000
H        2.80615512       1.62013441      12.29121606        2       1.00000000       0.00000000       0.00000000       0.00000000
H        1.40307756       4.05033604      12.29121606        2       1.00000000       0.00000000       0.00000000       0.00000000
H        4.20923268       4.05033604      12.29121606        2       1.00000000       0.00000000       0.00000000       0.00000000
H        0.00000000       0.00000000      14.58243212        1       1.00000000       0.00000000       0.00000000       0.00000000
H        2.80615512       0.00000000      14.58243212        1       1.00000000       0.00000000       0.00000000       0.00000000
H        1.40307756       2.43020162      14.58243212        1       1.00000000       0.00000000       0.00000000       0.00000000
H        4.20923268       2.43020162      14.58243212        1       1.00000000       0.00000000       0.00000000       0.00000000
H        3.68252386       1.63775240       4.23436592        0       1.00000000      -0.15778783      -0.11353554      -0.19368675
H        5.12838721       4.46543511       6.35684203        0       1.00000000       0.42021264       0.26508934      -1.41329625
H        1.40134545       3.02032933      17.18570185        0       1.00000000       0.20046026       0.17768177       0.43079822
H        2.80376485       4.88363330       6.40196891        0       1.00000000       1.60312960       1.97243003       0.11612819
H        4.66554772       1.34742243      21.82175146        0       1.00000000       0.44660167      -1.89943992      -0.69117050
H        1.62579651       3.53620726       1.82846534        0       1.00000000       2.03613201      -1.71235777      -1.30685892
18
Lattice="5.612310241546866 0.0 0.0 0.0 4.860403243099165 0.0 0.0 0.0 24.582432123328676" Properties=species:S:1:pos:R:3:tags:I:1:masses:R:1:momenta:R:3 KEmax=23.26679191048647 iter=1199 volume=670.5618179858607 ns_energy=2.120049212376622 last_walked_iter_clone=1135 ns_P=0.0 config_n_global=1199 ns_KE=9.882458531273178 pbc="T T F"