18
Lattice="5.612310241546866 0.0 0.0 0.0 4.860403243099165 0.0 0.0 0.0 24.582432123328676" Properties=species:S:1:pos:R:3:tags:I:1:masses:R:1:momenta:R:3:forces:R:3 KEmax=23.26679191048647 iter=90068 volume=670.5618179858607 ns_energy=-11.638031574950679 last_walked_iter_clone=89884 energy=-11.638031574982723 stress="0.022594280970014053 1.6661752941636194e-09 -2.9160654427357223e-08 1.6661752941636194e-09 0.022708700396990432 1.8373456179468757e-08 -2.9160654427357223e-08 1.8373456179468757e-08 0.012283698108357333" pbc="T T F"
H        1.40307756       0.81006721      10.00000000        3       1.00000000       0.00000000       0.00000000       0.00000000       0.00000000       0.00000000       0.00000000
H        4.20923268       0.81006721      10.00000000        3       1.00000000       0.00000000       0.00000000       0.00000000       0.00000000       0.00000000       0.00000000
H        0.00000000       3.24026883      10.00000000        3       1.00000000       0.00000000       0.00000000       0.00000000       0.00000000       0.00000000       0.00000000
H        2.80615512       3.24026883      10.00000000        3       1.00000000       0.00000000       0.00000000       0.00000000       0.00000000       0.00000000       0.00000000
H        0.00000000       1.62013441      12.29121606        2       1.00000000       0.00000000       0.00000000       0.00000000       0.00000000       0.00000000       0.00000000
H        2.80615512       1.62013441      12.29121606        2       1.00000000       0.00000000       0.00000000       0.00000000       0.00000000       0.00000000       0.00000000
H        1.40307756       4.05033604      12.29121606        2       1.00000000       0.00000000       0.00000000       0.00000000       0.00000000       0.00000000       0.00000000
H        4.20923268       4.05033604      12.29121606        2       1.00000000       0.00000000       0.00000000       0.00000000       0.00000000       0.00000000       0.00000000
H        0.00000000       0.00000000      14.58243212        1       1.00000000       0.00000000       0.00000000       0.00000000       0.00000000       0.00000000       0.00000000
H        2.80615512       0.00000000      14.58243212        1       1.00000000       0.00000000       0.00000000       0.00000000       0.00000000       0.00000000       0.00000000
H        1.40307756       2.43020162      14.58243212        1       1.00000000       0.00000000       0.00000000       0.00000000       0.00000000       0.00000000       0.00000000
H        4.20923268       2.43020162      14.58243212        1       1.00000000       0.00000000       0.00000000       0.00000000       0.00000000       0.00000000       0.00000000
H        4.20923258       4.05033786       7.77136570        0       1.00000000      -0.00000026      -0.00000076       0.00000227      -0.00000045       0.00000269       0.00000301
H       -0.00000104       1.62013361       7.77136785        0       1.00000000       0.00000136       0.00000141       0.00000010       0.00000152      -0.00000014       0.00000109
H        1.41300847       4.05018681      16.81113031        0       1.00000000      -0.00000018       0.00000004      -0.00000176       0.00000017       0.00000167      -0.00000393
H        1.40307680       4.05033432       7.77136802        0       1.00000000      -0.00000195      -0.00000055      -0.00000045      -0.00000014      -0.00000635       0.00000293
H        5.60237669       1.61998855      16.81113041        0       1.00000000       0.00000186       0.00000503       0.00000392      -0.00000306      -0.00000359       0.00000071
H        2.80615561       1.62013381       7.77136781        0       1.00000000      -0.00000303      -0.00000018       0.00000179      -0.00000704       0.00000433       0.00000234
18
Lattice="5.612310241546866 0.0 0.0 0.0 4.860403243099165 0.0 0.0 0.0 24.582432123328676" Properties=species:S:1:pos:R:3:tags:I:1:masses:R:1:momenta:R:3:forces:R:3 KEmax=23.26679191048647 iter=90068 volume=670.5618179858607 ns_energy=-11.638031574952114 last_walked_iter_clone=89987 energy=-11.638031574982723 stress="0.022594280970014053 1.6661752941636194e-09 -2.9160654427357223e-08 1.6661752941636194e-09 0.022708700396990432 1.8373456179468757e-08 -2.9160654427357223e-08 1.8373456179468757e-08 0.012283698108357333" pbc="T T F"
H        1.40307756       0.81006721      10.00000000        3       1.00000000       0.00000000       0.00000000       0.00000000       0.00000000       0.00000000       0.00000000
H        4.20923268       0.81006721      10.00000000        3       1.00000000       0.00000000       0.00000000       0.00000000       0.00000000       0.00000000       0.00000000
H        0.00000000       3.24026883      10.00000000        3       1.00000000       0.00000000       0.00000000       0.00000000       0.00000000       0.00000000       0.00000000
H        2.80615512       3.24026883      10.00000000        3       1.00000000       0.00000000       0.00000000       0.00000000       0.00000000       0.00000000       0.00000000
H        0.00000000       1.62013441      12.29121606        2       1.00000000       0.00000000       0.00000000       0.00000000       0.00000000       0.00000000       0.00000000
H        2.80615512       1.62013441      12.29121606        2       1.00000000       0.00000000       0.00000000       0.00000000       0.00000000       0.00000000       0.00000000
H        1.40307756       4.05033604      12.29121606        2       1.00000000       0.00000000       0.00000000       0.00000000       0.00000000       0.00000000       0.00000000
H        4.20923268       4.05033604      12.29121606        2       1.00000000       0.00000000       0.00000000       0.00000000       0.00000000       0.00000000       0.00000000
H        0.00000000       0.00000000      14.58243212        1       1.00000000       0.00000000       0.00000000       0.00000000       0.00000000       0.00000000       0.00000000
H        2.80615512       0.00000000      14.58243212        1       1.00000000       0.00000000       0.00000000       0.00000000       0.00000000       0.00000000       0.00000000
H        1.40307756       2.43020162      14.58243212        1       1.00000000       0.00000000       0.00000000       0.00000000       0.00000000       0.00000000       0.00000000
H        4.20923268       2.43020162      14.58243212        1       1.00000000       0.00000000       0.00000000       0.00000000       0.00000000       0.00000000       0.00000000
H        4.20923285       4.05033282       7.77136699        0       1.00000000       0.00000539       0.00000214       0.00000324      -0.00000045       0.00000269       0.00000301
H        5.61231120       1.62013160       7.77136736        0       1.00000000      -0.00000104       0.00000217       0.00000136       0.00000152      -0.00000014       0.00000109
H        1.41300710       4.05018987      16.81113113        0       1.00000000      -0.00000098       0.00000174      -0.00000259       0.00000017       0.00000167      -0.00000393
H        1.40307923       4.05033523       7.77136653        0       1.00000000       0.00000155      -0.00000137      -0.00000170      -0.00000014      -0.00000635       0.00000293
H        5.60237953       1.61998779      16.81112869        0       1.00000000       0.00000094      -0.00000042      -0.00000097      -0.00000306      -0.00000359       0.00000071
H        2.80615774       1.62013276       7.77136719        0       1.00000000       0.00000002      -0.00000141       0.00000327      -0.00000704       0.00000433       0.00000234
18
Lattice="5.612310241546866 0.0 0.0 0.0 4.860403243099165 0.0 0.0 0.0 24.582432123328676" Properties=species:S:1:pos:R:3:tags:I:1:masses:R:1:momenta:R:3:forces:R:3 KEmax=23.26679191048647 iter=90068 volume=670.5618179858607 ns_energy=-11.638031574950691 last_walked_iter_clone=89935 energy=-11.638031574982723 stress="0.022594280970014053 1.6661752941636194e-09 -2.9160654427357223e-08 1.6661752941636194e-09 0.022708700396990432 1.8373456179468757e-08 -2.9160654427357223e-08 1.8373456179468757e-08 0.012283698108357333" pbc="T T F"
H        1.40307756       0.81006721      10.00000000        3       1.00000000       0.00000000       0.00000000       0.00000000       0.00000000       0.00000000       0.00000000
H        4.20923268       0.81006721      10.00000000        3       1.00000000       0.00000000       0.00000000       0.00000000       0.00000000       0.00000000       0.00000000
H        0.00000000       3.24026883      10.00000000        3       1.00000000       0.00000000       0.00000000       0.00000000       0.00000000       0.00000000       0.00000000
H        2.80615512       3.24026883      10.00000000        3       1.00000000       0.00000000       0.00000000       0.00000000       0.00000000       0.00000000       0.00000000
H        0.00000000       1.62013441      12.29121606        2       1.00000000       0.00000000       0.00000000       0.00000000       0.00000000       0.00000000       0.00000000
H        2.80615512       1.62013441      12.29121606        2       1.00000000       0.00000000       0.00000000       0.00000000       0.00000000       0.00000000       0.00000000
H        1.40307756       4.05033604      12.29121606        2       1.00000000       0.00000000       0.00000000       0.00000000       0.00000000       0.00000000       0.00000000
H        4.20923268       4.05033604      12.29121606        2       1.00000000       0.00000000       0.00000000       0.00000000       0.00000000       0.00000000       0.00000000
H        0.00000000       0.00000000      14.58243212        1       1.00000000       0.00000000       0.00000000       0.00000000       0.00000000       0.00000000       0.00000000
H        2.80615512       0.00000000      14.58243212        1       1.00000000       0.00000000       0.00000000       0.00000000       0.00000000       0.00000000       0.00000000
H        1.40307756       2.43020162      14.58243212        1       1.00000000       0.00000000       0.00000000       0.00000000       0.00000000       0.00000000       0.00000000
H        4.20923268       2.43020162      14.58243212        1       1.00000000       0.00000000       0.00000000       0.00000000       0.00000000       0.00000000       0.00000000
H        4.20923049       4.05033646       7.77136630        0       1.00000000       0.00000474      -0.00000041      -0.00000197      -0.00000045       0.00000269       0.00000301
H        5.61230817       1.62013413       7.77136786        0       1.00000000       0.00000113       0.00000022      -0.00000363       0.00000152      -0.00000014       0.00000109
H        1.41300624       4.05018784      16.81112938        0       1.00000000       0.00000021       0.00000115      -0.00000143       0.00000017       0.00000167      -0.00000393
H        1.40307476       4.05033489       7.77136816        0       1.00000000      -0.00000209      -0.00000065      -0.00000284      -0.00000014      -0.00000635       0.00000293
H        5.60237852       1.61998468      16.81113135        0       1.00000000      -0.00000079       0.00000162      -0.00000299      -0.00000306      -0.00000359       0.00000071
H        2.80615460       1.62013193       7.77136659        0       1.00000000       0.00000123      -0.00000010      -0.00000192      -0.00000704       0.00000433       0.00000234
18
Lattice="5.612310241546866 0.0 0.0 0.0 4.860403243099165 0.0 0.0 0.0 24.582432123328676" Properties=species:S:1:pos:R:3:tags:I:1:masses:R:1:momenta:R:3:forces:R:3 KEmax=23.26679191048647 iter=90068 volume=670.5618179858607 ns_energy=-11.638031574949956 last_walked_iter_clone=90000 energy=-11.638031574982723 stress="0.022594280970014053 1.6661752941636194e-09 -2.9160654427357223e-08 1.6661752941636194e-09 0.022708700396990432 1.8373456179468757e-08 -2.9160654427357223e-08 1.8373456179468757e-08 0.012283698108357333" pbc="T T F"
H        1.40307756       0.81006721      10.00000000        3       1.00000000       0.00000000       0.00000000       0.00000000       0.00000000       0.00000000       0.00000000
H        4.20923268       0.81006721      10.00000000        3       1.00000000       0.00000000       0.00000000       0.00000000       0.00000000       0.00000000       0.00000000
H        0.00000000       3.24026883      10.00000000        3       1.00000000       0.00000000       0.00000000       0.00000000       0.00000000       0.00000000       0.00000000
H        2.80615512       3.24026883      10.00000000        3       1.00000000       0.00000000       0.00000000       0.00000000       0.00000000       0.00000000       0.00000000
H        0.00000000       1.62013441      12.29121606        2       1.00000000       0.00000000       0.00000000       0.00000000       0.00000000       0.00000000       0.00000000
H        2.80615512       1.62013441      12.29121606        2       1.00000000       0.00000000       0.00000000       0.00000000       0.00000000       0.00000000       0.00000000
H        1.40307756       4.05033604      12.29121606        2       1.00000000       0.00000000       0.00000000       0.00000000       0.00000000       0.00000000       0.00000000
H        4.20923268       4.05033604      12.29121606        2       1.00000000       0.00000000       0.00000000       0.00000000       0.00000000       0.00000000       0.00000000
H        0.00000000       0.00000000      14.58243212        1       1.00000000       0.00000000       0.00000000       0.00000000       0.00000000       0.00000000       0.00000000
H        2.80615512       0.00000000      14.58243212        1       1.00000000       0.00000000       0.00000000       0.00000000       0.00000000       0.00000000       0.00000000
H        1.40307756       2.43020162      14.58243212        1       1.00000000       0.00000000       0.00000000       0.00000000       0.00000000       0.00000000       0.00000000
H        4.20923268       2.43020162      14.58243212        1       1.00000000       0.00000000       0.00000000       0.00000000       0.00000000       0.00000000       0.00000000
H        4.20923060       4.05033509       7.77136749        0       1.00000000       0.00000078      -0.00000176       0.00000336      -0.00000045       0.00000269       0.00000301
H        0.00000041       1.62013300       7.77136720        0       1.00000000      -0.00000026      -0.00000313      -0.00000063       0.00000152      -0.00000014       0.00000109
H        1.41300811       4.05018866      16.81113030        0       1.00000000       0.00000180      -0.00000301       0.00000210       0.00000017       0.00000167      -0.00000393
H        1.40307669       4.05033377       7.77136756        0       1.00000000      -0.00000176      -0.00000027      -0.00000127      -0.00000014      -0.00000635       0.00000293
H        5.60237898       1.61999065      16.81112805        0       1.00000000       0.00000216       0.00000019       0.00000250      -0.00000306      -0.00000359       0.00000071
H        2.80615565       1.62013258       7.77136714        0       1.00000000      -0.00000292      -0.00000281       0.00000280      -0.00000704       0.00000433       0.00000234
18
Lattice="5.612310241546866 0.0 0.0 0.0 4.860403243099165 0.0 0.0 0.0 24.582432123328676" Properties=species:S:1:pos:R:3:tags:I:1:masses:R:1:momenta:R:3:forces:R:3 KEmax=23.26679191048647 iter=90068 volume=670.5618179858607 ns_energy=-11.638031574950094 last_walked_iter_clone=89996 energy=-11.638031574982723 stress="0.022594280970014053 1.6661752941636194e-09 -2.9160654427357223e-08 1.6661752941636194e-09 0.022708700396990432 1.8373456179468757e-08 -2.9160654427357223e-08 1.8373456179468757e-08 0.012283698108357333" pbc="T T F"
H        1.40307756       0.81006721      10.00000000        3       1.00000000       0.00000000       0.00000000       0.00000000       0.00000000       0.00000000       0.00000000
H        4.20923268       0.81006721      10.00000000        3       1.00000000       0.00000000       0.00000000       0.00000000       0.00000000       0.00000000       0.00000000
H        0.00000000       3.24026883      10.00000000        3       1.00000000       0.00000000       0.00000000       0.00000000       0.00000000       0.00000000       0.00000000
H        2.80615512       3.24026883      10.00000000        3       1.00000000       0.00000000       0.00000000       0.00000000       0.00000000       0.00000000       0.00000000
H        0.00000000       1.62013441      12.29121606        2       1.00000000       0.00000000       0.00000000       0.00000000       0.00000000       0.00000000       0.00000000
H        2.80615512       1.62013441      12.29121606        2       1.00000000       0.00000000       0.00000000       0.00000000       0.00000000       0.00000000       0.00000000
H        1.40307756       4.05033604      12.29121606        2       1.00000000       0.00000000       0.00000000       0.00000000       0.00000000       0.00000000       0.00000000
H        4.20923268       4.05033604      12.29121606        2       1.00000000       0.00000000       0.00000000       0.00000000       0.00000000       0.00000000       0.00000000
H        0.00000000       0.00000000      14.58243212        1       1.00000000       0.00000000       0.00000000       0.00000000       0.00000000       0.00000000       0.00000000
H        2.80615512       0.00000000      14.58243212        1       1.00000000       0.00000000       0.00000000       0.00000000       0.00000000       0.00000000       0.00000000
H        1.40307756       2.43020162      14.58243212        1       1.00000000       0.00000000       0.00000000       0.00000000       0.00000000       0.00000000       0.00000000
H        4.20923268       2.43020162      14.58243212        1       1.00000000       0.00000000       0.00000000       0.00000000       0.00000000       0.00000000       0.00000000
H        4.20923129       4.05033662       7.77136699        0       1.00000000       0.00000443       0.00000460      -0.00000175      -0.00000045       0.00000269       0.00000301
H        5.61230757       1.62013434       7.77136745        0       1.00000000      -0.00000122       0.00000155       0.00000101       0.00000152      -0.00000014       0.00000109
H        1.41300916       4.05019113      16.81113063        0       1.00000000      -0.00000087      -0.00000113      -0.00000202       0.00000017       0.00000167      -0.00000393
H        1.40307662       4.05033702       7.77136693        0       1.00000000       0.00000027       0.00000126       0.00000213      -0.00000014      -0.00000635       0.00000293
H        5.60237400       1.61999081      16.81113165        0       1.00000000      -0.00000192      -0.00000151      -0.00000172      -0.00000306      -0.00000359       0.00000071
H        2.80615282       1.62013399       7.77136725        0       1.00000000       0.00000141       0.00000153      -0.00000244      -0.00000704       0.00000433       0.00000234
18
Lattice="5.612310241546866 0.0 0.0 0.0 4.860403243099165 0.0 0.0 0.0 24.582432123328676" Properties=species:S:1:pos:R:3:tags:I:1:masses:R:1:momenta:R:3:forces:R:3 KEmax=23.26679191048647 iter=90068 volume=670.5618179858607 ns_energy=-11.638031574950347 last_walked_iter_clone=90039 energy=-11.638031574982723 stress="0.022594280970014053 1.6661752941636194e-09 -2.9160654427357223e-08 1.6661752941636194e-09 0.022708700396990432 1.8373456179468757e-08 -2.9160654427357223e-08 1.8373456179468757e-08 0.012283698108357333" pbc="T T F"
H        1.40307756       0.81006721      10.00000000        3       1.00000000       0.00000000       0.00000000       0.00000000       0.00000000       0.00000000       0.00000000
H        4.20923268       0.81006721      10.00000000        3       1.00000000       0.00000000       0.00000000       0.00000000       0.00000000       0.00000000       0.00000000
H        0.00000000       3.24026883      10.00000000        3       1.00000000       0.00000000       0.00000000       0.00000000       0.00000000       0.00000000       0.00000000
H        2.80615512       3.24026883      10.00000000        3       1.00000000       0.00000000       0.00000000       0.00000000       0.00000000       0.00000000       0.00000000
H        0.00000000       1.62013441      12.29121606        2       1.00000000       0.00000000       0.00000000       0.00000000       0.00000000       0.00000000       0.00000000
H        2.80615512       1.62013441      12.29121606        2       1.00000000       0.00000000       0.00000000       0.00000000       0.00000000       0.00000000       0.00000000
H        1.40307756       4.05033604      12.29121606        2       1.00000000       0.00000000       0.00000000       0.00000000       0.00000000       0.00000000       0.00000000
H        4.20923268       4.05033604      12.29121606        2       1.00000000       0.00000000       0.00000000       0.00000000       0.00000000       0.00000000       0.00000000
H        0.00000000       0.00000000      14.58243212        1       1.00000000       0.00000000       0.00000000       0.00000000       0.00000000       0.00000000       0.00000000
H        2.80615512       0.00000000      14.58243212        1       1.00000000       0.00000000       0.00000000       0.00000000       0.00000000       0.00000000       0.00000000
H        1.40307756       2.43020162      14.58243212        1       1.00000000       0.00000000       0.00000000       0.00000000       0.00000000       0.00000000       0.00000000
H        4.20923268       2.43020162      14.58243212        1       1.00000000       0.00000000       0.00000000       0.00000000       0.00000000       0.00000000       0.00000000
H        4.20923421       4.05033665       7.77136625        0       1.00000000       0.00000155      -0.00000049       0.00000057      -0.00000045       0.00000269       0.00000301
H        5.61231030       1.62013704       7.77136817        0       1.00000000       0.00000397      -0.00000175      -0.00000009       0.00000152      -0.00000014       0.00000109
H        1.41300443       4.05018720      16.81113087        0       1.00000000       0.00000036       0.00000109      -0.00000042       0.00000017       0.00000167      -0.00000393
H        1.40307886       4.05033738       7.77136553        0       1.00000000       0.00000582      -0.00000169      -0.00000009      -0.00000014      -0.00000635       0.00000293
H        5.60237684       1.61998763      16.81113107        0       1.00000000      -0.00000129       0.00000130      -0.00000200      -0.00000306      -0.00000359       0.00000071
H        2.80615393       1.62013547       7.77136597        0       1.00000000      -0.00000013       0.00000251       0.00000167      -0.00000704       0.00000433       0.00000234
18
Lattice="5.612310241546866 0.0 0.0 0.0 4.860403243099165 0.0 0.0 0.0 24.582432123328676" Properties=species:S:1:pos:R:3:tags:I:1:masses:R:1:momenta:R:3:forces:R:3 KEmax=23.26679191048647 iter=90068 volume=670.5618179858607 ns_energy=-11.638031574950476 last_walked_iter_clone=89878 energy=-11.638031574982723 stress="0.022594280970014053 1.6661752941636194e-09 -2.9160654427357223e-08 1.6661752941636194e-09 0.022708700396990432 1.8373456179468757e-08 -2.9160654427357223e-08 1.8373456179468757e-08 0.012283698108357333" pbc="T T F"
H        1.40307756       0.81006721      10.00000000        3       1.00000000       0.00000000       0.00000000       0.00000000       0.00000000       0.00000000       0.00000000
H        4.20923268       0.81006721      10.00000000        3       1.00000000       0.00000000       0.00000000       0.00000000       0.00000000       0.00000000       0.00000000
H        0.00000000       3.24026883      10.00000000        3       1.00000000       0.00000000       0.00000000       0.00000000       0.00000000       0.00000000       0.00000000
H        2.80615512       3.24026883      10.00000000        3       1.00000000       0.00000000       0.00000000       0.00000000       0.00000000       0.00000000       0.00000000
H        0.00000000       1.62013441      12.29121606        2       1.00000000       0.00000000       0.00000000       0.00000000       0.00000000       0.00000000       0.00000000
H        2.80615512       1.62013441      12.29121606        2       1.00000000       0.00000000       0.00000000       0.00000000       0.00000000       0.00000000       0.00000000
H        1.40307756       4.05033604      12.29121606        2       1.00000000       0.00000000       0.00000000       0.00000000       0.00000000       0.00000000       0.00000000
H        4.20923268       4.05033604      12.29121606        2       1.00000000       0.00000000       0.00000000       0.00000000       0.00000000       0.00000000       0.00000000
H        0.00000000       0.00000000      14.58243212        1       1.00000000       0.00000000       0.00000000       0.00000000       0.00000000       0.00000000       0.00000000
H        2.80615512       0.00000000      14.58243212        1       1.00000000       0.00000000       0.00000000       0.00000000       0.00000000       0.00000000       0.00000000
H        1.40307756       2.43020162      14.58243212        1       1.00000000       0.00000000       0.00000000       0.00000000       0.00000000       0.00000000       0.00000000
H        4.20923268       2.43020162      14.58243212        1       1.00000000       0.00000000       0.00000000       0.00000000       0.00000000       0.00000000       0.00000000
H        4.20923135       4.05033564       7.77136706        0       1.00000000      -0.00000073       0.00000170       0.00000088      -0.00000045       0.00000269       0.00000301
H       -0.00000157       1.62013592       7.77136694        0       1.00000000       0.00000046      -0.00000187      -0.00000414       0.00000152      -0.00000014       0.00000109
H        1.41301327       4.05018800      16.81113108        0       1.00000000       0.00000124       0.00000352      -0.00000192       0.00000017       0.00000167      -0.00000393
H        1.40307442       4.05033801       7.77136742        0       1.00000000      -0.00000114      -0.00000038      -0.00000032      -0.00000014      -0.00000635       0.00000293
H        5.60238101       1.61998846      16.81113018        0       1.00000000       0.00000107      -0.00000086       0.00000064      -0.00000306      -0.00000359       0.00000071
H        2.80615464       1.62013391       7.77136698        0       1.00000000      -0.00000230      -0.00000478      -0.00000144      -0.00000704       0.00000433       0.00000234
18
Lattice="5.612310241546866 0.0 0.0 0.0 4.860403243099165 0.0 0.0 0.0 24.582432123328676" Properties=species:S:1:pos:R:3:tags:I:1:masses:R:1:momenta:R:3:forces:R:3 KEmax=23.26679191048647 iter=90068 volume=670.5618179858607 ns_energy=-11.638031574949876 last_walked_iter_clone=90044 energy=-11.638031574982723 stress="0.022594280970014053 1.6661752941636194e-09 -2.9160654427357223e-08 1.6661752941636194e-09 0.022708700396990432 1.8373456179468757e-08 -2.9160654427357223e-08 1.8373456179468757e-08 0.012283698108357333" pbc="T T F"
H        1.40307756       0.81006721      10.00000000        3       1.00000000       0.00000000       0.00000000       0.00000000       0.00000000       0.00000000       0.00000000
H        4.20923268       0.81006721      10.00000000        3       1.00000000       0.00000000       0.00000000       0.00000000       0.00000000       0.00000000       0.00000000
H        0.00000000       3.24026883      10.00000000        3       1.00000000       0.00000000       0.00000000       0.00000000       0.00000000       0.00000000       0.00000000
H        2.80615512       3.24026883      10.00000000        3       1.00000000       0.00000000       0.00000000       0.00000000       0.00000000       0.00000000       0.00000000
H        0.00000000       1.62013441      12.29121606        2       1.00000000       0.00000000       0.00000000       0.00000000       0.00000000       0.00000000       0.00000000
H        2.80615512       1.62013441      12.29121606        2       1.00000000       0.00000000       0.00000000       0.00000000       0.00000000       0.00000000       0.00000000
H        1.40307756       4.05033604      12.29121606        2       1.00000000       0.00000000       0.00000000       0.00000000       0.00000000       0.00000000       0.00000000
H        4.20923268       4.05033604      12.29121606        2       1.00000000       0.00000000       0.00000000       0.00000000       0.00000000       0.00000000       0.00000000
H        0.00000000       0.00000000      14.58243212        1       1.00000000       0.00000000       0.00000000       0.00000000       0.00000000       0.00000000       0.00000000
H        2.80615512       0.00000000      14.58243212        1       1.00000000       0.00000000       0.00000000       0.00000000       0.00000000       0.00000000       0.00000000
H        1.40307756       2.43020162      14.58243212        1       1.00000000       0.00000000       0.00000000       0.00000000       0.00000000       0.00000000       0.00000000
H        4.20923268       2.43020162      14.58243212        1       1.00000000       0.00000000       0.00000000       0.00000000       0.00000000       0.00000000       0.00000000
H        4.20923082       4.05033923       7.77136557        0       1.00000000       0.00000163       0.00000146       0.00000056      -0.00000045       0.00000269       0.00000301
H       -0.00000100       1.62013775       7.77136737        0       1.00000000      -0.00000165      -0.00000144       0.00000073       0.00000152      -0.00000014       0.00000109
H        1.41300681       4.05018654      16.81113051        0       1.00000000       0.00000155      -0.00000144       0.00000354       0.00000017       0.00000167      -0.00000393