18
Lattice="5.612310241546866 0.0 0.0 0.0 4.860403243099165 0.0 0.0 0.0 24.582432123328676" Properties=species:S:1:pos:R:3:tags:I:1:masses:R:1:momenta:R:3:forces:R:3 KEmax=23.26679191048647 iter=119999 volume=670.5618179858607 ns_energy=-11.638031575015981 last_walked_iter_clone=119272 energy=-11.638031575020147 stress="0.022594273152824664 3.88307844785319e-09 -1.939500796471497e-09 3.88307844785319e-09 0.022708673260722557 -6.979005406566813e-09 -1.939500796471497e-09 -6.979005406566813e-09 0.012283600712248637" pbc="T T F"
H        1.40307756       0.81006721      10.00000000        3       1.00000000       0.00000000       0.00000000       0.00000000       0.00000000       0.00000000       0.00000000
H        4.20923268       0.81006721      10.00000000        3       1.00000000       0.00000000       0.00000000       0.00000000       0.00000000       0.00000000       0.00000000
H        0.00000000       3.24026883      10.00000000        3       1.00000000       0.00000000       0.00000000       0.00000000       0.00000000       0.00000000       0.00000000
H        2.80615512       3.24026883      10.00000000        3       1.00000000       0.00000000       0.00000000       0.00000000       0.00000000       0.00000000       0.00000000
H        0.00000000       1.62013441      12.29121606        2       1.00000000       0.00000000       0.00000000       0.00000000       0.00000000       0.00000000       0.00000000
H        2.80615512       1.62013441      12.29121606        2       1.00000000       0.00000000       0.00000000       0.00000000       0.00000000       0.00000000       0.00000000
H        1.40307756       4.05033604      12.29121606        2       1.00000000       0.00000000       0.00000000       0.00000000       0.00000000       0.00000000       0.00000000
H        4.20923268       4.05033604      12.29121606        2       1.00000000       0.00000000       0.00000000       0.00000000       0.00000000       0.00000000       0.00000000
H        0.00000000       0.00000000      14.58243212        1       1.00000000       0.00000000       0.00000000       0.00000000       0.00000000       0.00000000       0.00000000
H        2.80615512       0.00000000      14.58243212        1       1.00000000       0.00000000       0.00000000       0.00000000       0.00000000       0.00000000       0.00000000
H        1.40307756       2.43020162      14.58243212        1       1.00000000       0.00000000       0.00000000       0.00000000       0.00000000       0.00000000       0.00000000
H        4.20923268       2.43020162      14.58243212        1       1.00000000       0.00000000       0.00000000       0.00000000       0.00000000       0.00000000       0.00000000
H        4.20923309       4.05033621       7.77136690        0       1.00000000      -0.00000147       0.00000110      -0.00000070      -0.00000135       0.00000069       0.00000057
H       -0.00000006       1.62013451       7.77136754        0       1.00000000       0.00000039      -0.00000062       0.00000012       0.00000063      -0.00000047      -0.00000110
H        1.41300846       4.05018932      16.81113016        0       1.00000000      -0.00000003       0.00000086      -0.00000097       0.00000057      -0.00000063       0.00000084
H        1.40307765       4.05033593       7.77136681        0       1.00000000      -0.00000020      -0.00000055      -0.00000002       0.00000071       0.00000067       0.00000083
H        5.60237949       1.61998755      16.81113129        0       1.00000000       0.00000011       0.00000052       0.00000144      -0.00000082       0.00000060      -0.00000183
H        2.80615535       1.62013469       7.77136706        0       1.00000000       0.00000013       0.00000022      -0.00000018      -0.00000045      -0.00000127       0.00000037
18
Lattice="5.612310241546866 0.0 0.0 0.0 4.860403243099165 0.0 0.0 0.0 24.582432123328676" Properties=species:S:1:pos:R:3:tags:I:1:masses:R:1:momenta:R:3:forces:R:3 KEmax=23.26679191048647 iter=119999 volume=670.5618179858607 ns_energy=-11.638031575015983 last_walked_iter_clone=117929 energy=-11.638031575020147 stress="0.022594273152824664 3.88307844785319e-09 -1.939500796471497e-09 3.88307844785319e-09 0.022708673260722557 -6.979005406566813e-09 -1.939500796471497e-09 -6.979005406566813e-09 0.012283600712248637" pbc="T T F"
H        1.40307756       0.81006721      10.00000000        3       1.00000000       0.00000000       0.00000000       0.00000000       0.00000000       0.00000000       0.00000000
H        4.20923268       0.81006721      10.00000000        3       1.00000000       0.00000000       0.00000000       0.00000000       0.00000000       0.00000000       0.00000000
H        0.00000000       3.24026883      10.00000000        3       1.00000000       0.00000000       0.00000000       0.00000000       0.00000000       0.00000000       0.00000000
H        2.80615512       3.24026883      10.00000000        3       1.00000000       0.00000000       0.00000000       0.00000000       0.00000000       0.00000000       0.00000000
H        0.00000000       1.62013441      12.29121606        2       1.00000000       0.00000000       0.00000000       0.00000000       0.00000000       0.00000000       0.00000000
H        2.80615512       1.62013441      12.29121606        2       1.00000000       0.00000000       0.00000000       0.00000000       0.00000000       0.00000000       0.00000000
H        1.40307756       4.05033604      12.29121606        2       1.00000000       0.00000000       0.00000000       0.00000000       0.00000000       0.00000000       0.00000000
H        4.20923268       4.05033604      12.29121606        2       1.00000000       0.00000000       0.00000000       0.00000000       0.00000000       0.00000000       0.00000000
H        0.00000000       0.00000000      14.58243212        1       1.00000000       0.00000000       0.00000000       0.00000000       0.00000000       0.00000000       0.00000000
H        2.80615512       0.00000000      14.58243212        1       1.00000000       0.00000000       0.00000000       0.00000000       0.00000000       0.00000000       0.00000000
H        1.40307756       2.43020162      14.58243212        1       1.00000000       0.00000000       0.00000000       0.00000000       0.00000000       0.00000000       0.00000000
H        4.20923268       2.43020162      14.58243212        1       1.00000000       0.00000000       0.00000000       0.00000000       0.00000000       0.00000000       0.00000000
H        4.20923227       4.05033582       7.77136718        0       1.00000000       0.00000011       0.00000021      -0.00000022      -0.00000135       0.00000069       0.00000057
H       -0.00000013       1.62013440       7.77136735        0       1.00000000       0.00000036      -0.00000064      -0.00000020       0.00000063      -0.00000047      -0.00000110
H        1.41300907       4.05019039      16.81113117        0       1.00000000       0.00000037       0.00000053      -0.00000051       0.00000057      -0.00000063       0.00000084
H        1.40307695       4.05033595       7.77136683        0       1.00000000      -0.00000100      -0.00000098       0.00000085       0.00000071       0.00000067       0.00000083
H        5.60238017       1.61998782      16.81113082        0       1.00000000       0.00000003      -0.00000128       0.00000061      -0.00000082       0.00000060      -0.00000183
H        2.80615474       1.62013401       7.77136678        0       1.00000000      -0.00000017      -0.00000044      -0.00000088      -0.00000045      -0.00000127       0.00000037
18
Lattice="5.612310241546866 0.0 0.0 0.0 4.860403243099165 0.0 0.0 0.0 24.582432123328676" Properties=species:S:1:pos:R:3:tags:I:1:masses:R:1:momenta:R:3:forces:R:3 KEmax=23.26679191048647 iter=119999 volume=670.5618179858607 ns_energy=-11.638031575015905 last_walked_iter_clone=118972 energy=-11.638031575020147 stress="0.022594273152824664 3.88307844785319e-09 -1.939500796471497e-09 3.88307844785319e-09 0.022708673260722557 -6.979005406566813e-09 -1.939500796471497e-09 -6.979005406566813e-09 0.012283600712248637" pbc="T T F"
H        1.40307756       0.81006721      10.00000000        3       1.00000000       0.00000000       0.00000000       0.00000000       0.00000000       0.00000000       0.00000000
H        4.20923268       0.81006721      10.00000000        3       1.00000000       0.00000000       0.00000000       0.00000000       0.00000000       0.00000000       0.00000000
H        0.00000000       3.24026883      10.00000000        3       1.00000000       0.00000000       0.00000000       0.00000000       0.00000000       0.00000000       0.00000000
H        2.80615512       3.24026883      10.00000000        3       1.00000000       0.00000000       0.00000000       0.00000000       0.00000000       0.00000000       0.00000000
H        0.00000000       1.62013441      12.29121606        2       1.00000000       0.00000000       0.00000000       0.00000000       0.00000000       0.00000000       0.00000000
H        2.80615512       1.62013441      12.29121606        2       1.00000000       0.00000000       0.00000000       0.00000000       0.00000000       0.00000000       0.00000000
H        1.40307756       4.05033604      12.29121606        2       1.00000000       0.00000000       0.00000000       0.00000000       0.00000000       0.00000000       0.00000000
H        4.20923268       4.05033604      12.29121606        2       1.00000000       0.00000000       0.00000000       0.00000000       0.00000000       0.00000000       0.00000000
H        0.00000000       0.00000000      14.58243212        1       1.00000000       0.00000000       0.00000000       0.00000000       0.00000000       0.00000000       0.00000000
H        2.80615512       0.00000000      14.58243212        1       1.00000000       0.00000000       0.00000000       0.00000000       0.00000000       0.00000000       0.00000000
H        1.40307756       2.43020162      14.58243212        1       1.00000000       0.00000000       0.00000000       0.00000000       0.00000000       0.00000000       0.00000000
H        4.20923268       2.43020162      14.58243212        1       1.00000000       0.00000000       0.00000000       0.00000000       0.00000000       0.00000000       0.00000000
H        4.20923255       4.05033605       7.77136746        0       1.00000000      -0.00000104      -0.00000039       0.00000016      -0.00000135       0.00000069       0.00000057
H       -0.00000010       1.62013434       7.77136697        0       1.00000000       0.00000048      -0.00000059       0.00000077       0.00000063      -0.00000047      -0.00000110
H        1.41300844       4.05018964      16.81113025        0       1.00000000       0.00000058      -0.00000107       0.00000012       0.00000057      -0.00000063       0.00000084
H        1.40307740       4.05033589       7.77136743        0       1.00000000       0.00000039       0.00000078      -0.00000134       0.00000071       0.00000067       0.00000083
H        5.60237938       1.61998831      16.81113006        0       1.00000000       0.00000082      -0.00000034      -0.00000144      -0.00000082       0.00000060      -0.00000183
H        2.80615487       1.62013475       7.77136763        0       1.00000000       0.00000056       0.00000036       0.00000028      -0.00000045      -0.00000127       0.00000037
18
Lattice="5.612310241546866 0.0 0.0 0.0 4.860403243099165 0.0 0.0 0.0 24.582432123328676" Properties=species:S:1:pos:R:3:tags:I:1:masses:R:1:momenta:R:3:forces:R:3 KEmax=23.26679191048647 iter=119999 volume=670.5618179858607 ns_energy=-11.638031575015857 last_walked_iter_clone=119901 energy=-11.638031575020147 stress="0.022594273152824664 3.88307844785319e-09 -1.939500796471497e-09 3.88307844785319e-09 0.022708673260722557 -6.979005406566813e-09 -1.939500796471497e-09 -6.979005406566813e-09 0.012283600712248637" pbc="T T F"
H        1.40307756       0.81006721      10.00000000        3       1.00000000       0.00000000       0.00000000       0.00000000       0.00000000       0.00000000       0.00000000
H        4.20923268       0.81006721      10.00000000        3       1.00000000       0.00000000       0.00000000       0.00000000       0.00000000       0.00000000       0.00000000
H        0.00000000       3.24026883      10.00000000        3       1.00000000       0.00000000       0.00000000       0.00000000       0.00000000       0.00000000       0.00000000
H        2.80615512       3.24026883      10.00000000        3       1.00000000       0.00000000       0.00000000       0.00000000       0.00000000       0.00000000       0.00000000
H        0.00000000       1.62013441      12.29121606        2       1.00000000       0.00000000       0.00000000       0.00000000       0.00000000       0.00000000       0.00000000
H        2.80615512       1.62013441      12.29121606        2       1.00000000       0.00000000       0.00000000       0.00000000       0.00000000       0.00000000       0.00000000
H        1.40307756       4.05033604      12.29121606        2       1.00000000       0.00000000       0.00000000       0.00000000       0.00000000       0.00000000       0.00000000
H        4.20923268       4.05033604      12.29121606        2       1.00000000       0.00000000       0.00000000       0.00000000       0.00000000       0.00000000       0.00000000
H        0.00000000       0.00000000      14.58243212        1       1.00000000       0.00000000       0.00000000       0.00000000       0.00000000       0.00000000       0.00000000
H        2.80615512       0.00000000      14.58243212        1       1.00000000       0.00000000       0.00000000       0.00000000       0.00000000       0.00000000       0.00000000
H        1.40307756       2.43020162      14.58243212        1       1.00000000       0.00000000       0.00000000       0.00000000       0.00000000       0.00000000       0.00000000
H        4.20923268       2.43020162      14.58243212        1       1.00000000       0.00000000       0.00000000       0.00000000       0.00000000       0.00000000       0.00000000
H        4.20923337       4.05033545       7.77136687        0       1.00000000       0.00000031      -0.00000002       0.00000080      -0.00000135       0.00000069       0.00000057
H        5.61231100       1.62013456       7.77136708        0       1.00000000       0.00000026       0.00000067       0.00000061       0.00000063      -0.00000047      -0.00000110
H        1.41300909       4.05018892      16.81113101        0       1.00000000      -0.00000016       0.00000034       0.00000060       0.00000057      -0.00000063       0.00000084
H        1.40307845       4.05033572       7.77136814        0       1.00000000       0.00000086      -0.00000083      -0.00000097       0.00000071       0.00000067       0.00000083
H        5.60237941       1.61998773      16.81113006        0       1.00000000       0.00000095      -0.00000012       0.00000002      -0.00000082       0.00000060      -0.00000183
H        2.80615541       1.62013418       7.77136720        0       1.00000000       0.00000029      -0.00000012       0.00000026      -0.00000045      -0.00000127       0.00000037
18
Lattice="5.612310241546866 0.0 0.0 0.0 4.860403243099165 0.0 0.0 0.0 24.582432123328676" Properties=species:S:1:pos:R:3:tags:I:1:masses:R:1:momenta:R:3:forces:R:3 KEmax=23.26679191048647 iter=119999 volume=670.5618179858607 ns_energy=-11.638031575016026 last_walked_iter_clone=116807 energy=-11.638031575020147 stress="0.022594273152824664 3.88307844785319e-09 -1.939500796471497e-09 3.88307844785319e-09 0.022708673260722557 -6.979005406566813e-09 -1.939500796471497e-09 -6.979005406566813e-09 0.012283600712248637" pbc="T T F"
H        1.40307756       0.81006721      10.00000000        3       1.00000000       0.00000000       0.00000000       0.00000000       0.00000000       0.00000000       0.00000000
H        4.20923268       0.81006721      10.00000000        3       1.00000000       0.00000000       0.00000000       0.00000000       0.00000000       0.00000000       0.00000000
H        0.00000000       3.24026883      10.00000000        3       1.00000000       0.00000000       0.00000000       0.00000000       0.00000000       0.00000000       0.00000000
H        2.80615512       3.24026883      10.00000000        3       1.00000000       0.00000000       0.00000000       0.00000000       0.00000000       0.00000000       0.00000000
H        0.00000000       1.62013441      12.29121606        2       1.00000000       0.00000000       0.00000000       0.00000000       0.00000000       0.00000000       0.00000000
H        2.80615512       1.62013441      12.29121606        2       1.00000000       0.00000000       0.00000000       0.00000000       0.00000000       0.00000000       0.00000000
H        1.40307756       4.05033604      12.29121606        2       1.00000000       0.00000000       0.00000000       0.00000000       0.00000000       0.00000000       0.00000000
H        4.20923268       4.05033604      12.29121606        2       1.00000000       0.00000000       0.00000000       0.00000000       0.00000000       0.00000000       0.00000000
H        0.00000000       0.00000000      14.58243212        1       1.00000000       0.00000000       0.00000000       0.00000000       0.00000000       0.00000000       0.00000000
H        2.80615512       0.00000000      14.58243212        1       1.00000000       0.00000000       0.00000000       0.00000000       0.00000000       0.00000000       0.00000000
H        1.40307756       2.43020162      14.58243212        1       1.00000000       0.00000000       0.00000000       0.00000000       0.00000000       0.00000000       0.00000000
H        4.20923268       2.43020162      14.58243212        1       1.00000000       0.00000000       0.00000000       0.00000000       0.00000000       0.00000000       0.00000000
H        4.20923336       4.05033595       7.77136705        0       1.00000000      -0.00000063       0.00000041       0.00000007      -0.00000135       0.00000069       0.00000057
H        0.00000049       1.62013442       7.77136718        0       1.00000000       0.00000029       0.00000011      -0.00000032       0.00000063      -0.00000047      -0.00000110
H        1.41300833       4.05018924      16.81113119        0       1.00000000      -0.00000050      -0.00000013      -0.00000005       0.00000057      -0.00000063       0.00000084
H        1.40307801       4.05033615       7.77136786        0       1.00000000       0.00000177      -0.00000015      -0.00000049       0.00000071       0.00000067       0.00000083
H        5.60237975       1.61998712      16.81113008        0       1.00000000      -0.00000016      -0.00000042      -0.00000001      -0.00000082       0.00000060      -0.00000183
H        2.80615538       1.62013370       7.77136725        0       1.00000000      -0.00000070      -0.00000063       0.00000066      -0.00000045      -0.00000127       0.00000037
18
Lattice="5.612310241546866 0.0 0.0 0.0 4.860403243099165 0.0 0.0 0.0 24.582432123328676" Properties=species:S:1:pos:R:3:tags:I:1:masses:R:1:momenta:R:3:forces:R:3 KEmax=23.26679191048647 iter=119999 volume=670.5618179858607 ns_energy=-11.638031575015878 last_walked_iter_clone=119614 energy=-11.638031575020147 stress="0.022594273152824664 3.88307844785319e-09 -1.939500796471497e-09 3.88307844785319e-09 0.022708673260722557 -6.979005406566813e-09 -1.939500796471497e-09 -6.979005406566813e-09 0.012283600712248637" pbc="T T F"
H        1.40307756       0.81006721      10.00000000        3       1.00000000       0.00000000       0.00000000       0.00000000       0.00000000       0.00000000       0.00000000
H        4.20923268       0.81006721      10.00000000        3       1.00000000       0.00000000       0.00000000       0.00000000       0.00000000       0.00000000       0.00000000
H        0.00000000       3.24026883      10.00000000        3       1.00000000       0.00000000       0.00000000       0.00000000       0.00000000       0.00000000       0.00000000
H        2.80615512       3.24026883      10.00000000        3       1.00000000       0.00000000       0.00000000       0.00000000       0.00000000       0.00000000       0.00000000
H        0.00000000       1.62013441      12.29121606        2       1.00000000       0.00000000       0.00000000       0.00000000       0.00000000       0.00000000       0.00000000
H        2.80615512       1.62013441      12.29121606        2       1.00000000       0.00000000       0.00000000       0.00000000       0.00000000       0.00000000       0.00000000
H        1.40307756       4.05033604      12.29121606        2       1.00000000       0.00000000       0.00000000       0.00000000       0.00000000       0.00000000       0.00000000
H        4.20923268       4.05033604      12.29121606        2       1.00000000       0.00000000       0.00000000       0.00000000       0.00000000       0.00000000       0.00000000
H        0.00000000       0.00000000      14.58243212        1       1.00000000       0.00000000       0.00000000       0.00000000       0.00000000       0.00000000       0.00000000
H        2.80615512       0.00000000      14.58243212        1       1.00000000       0.00000000       0.00000000       0.00000000       0.00000000       0.00000000       0.00000000
H        1.40307756       2.43020162      14.58243212        1       1.00000000       0.00000000       0.00000000       0.00000000       0.00000000       0.00000000       0.00000000
H        4.20923268       2.43020162      14.58243212        1       1.00000000       0.00000000       0.00000000       0.00000000       0.00000000       0.00000000       0.00000000
H        4.20923216       4.05033619       7.77136751        0       1.00000000       0.00000056       0.00000035      -0.00000083      -0.00000135       0.00000069       0.00000057
H       -0.00000034       1.62013452       7.77136771        0       1.00000000      -0.00000012       0.00000034      -0.00000061       0.00000063      -0.00000047      -0.00000110
H        1.41300849       4.05019014      16.81113119        0       1.00000000       0.00000002       0.00000024       0.00000011       0.00000057      -0.00000063       0.00000084
H        1.40307746       4.05033667       7.77136656        0       1.00000000      -0.00000029      -0.00000004       0.00000037       0.00000071       0.00000067       0.00000083
H        5.60237918       1.61998782      16.81113086        0       1.00000000      -0.00000162       0.00000033       0.00000007      -0.00000082       0.00000060      -0.00000183
H        2.80615532       1.62013476       7.77136729        0       1.00000000       0.00000049       0.00000027      -0.00000122      -0.00000045      -0.00000127       0.00000037
18
Lattice="5.612310241546866 0.0 0.0 0.0 4.860403243099165 0.0 0.0 0.0 24.582432123328676" Properties=species:S:1:pos:R:3:tags:I:1:masses:R:1:momenta:R:3:forces:R:3 KEmax=23.26679191048647 iter=119999 volume=670.5618179858607 ns_energy=-11.638031575015951 last_walked_iter_clone=116133 energy=-11.638031575020147 stress="0.022594273152824664 3.88307844785319e-09 -1.939500796471497e-09 3.88307844785319e-09 0.022708673260722557 -6.979005406566813e-09 -1.939500796471497e-09 -6.979005406566813e-09 0.012283600712248637" pbc="T T F"
H        1.40307756       0.81006721      10.00000000        3       1.00000000       0.00000000       0.00000000       0.00000000       0.00000000       0.00000000       0.00000000
H        4.20923268       0.81006721      10.00000000        3       1.00000000       0.00000000       0.00000000       0.00000000       0.00000000       0.00000000       0.00000000
H        0.00000000       3.24026883      10.00000000        3       1.00000000       0.00000000       0.00000000       0.00000000       0.00000000       0.00000000       0.00000000
H        2.80615512       3.24026883      10.00000000        3       1.00000000       0.00000000       0.00000000       0.00000000       0.00000000       0.00000000       0.00000000
H        0.00000000       1.62013441      12.29121606        2       1.00000000       0.00000000       0.00000000       0.00000000       0.00000000       0.00000000       0.00000000
H        2.80615512       1.62013441      12.29121606        2       1.00000000       0.00000000       0.00000000       0.00000000       0.00000000       0.00000000       0.00000000
H        1.40307756       4.05033604      12.29121606        2       1.00000000       0.00000000       0.00000000       0.00000000       0.00000000       0.00000000       0.00000000
H        4.20923268       4.05033604      12.29121606        2       1.00000000       0.00000000       0.00000000       0.00000000       0.00000000       0.00000000       0.00000000
H        0.00000000       0.00000000      14.58243212        1       1.00000000       0.00000000       0.00000000       0.00000000       0.00000000       0.00000000       0.00000000
H        2.80615512       0.00000000      14.58243212        1       1.00000000       0.00000000       0.00000000       0.00000000       0.00000000       0.00000000       0.00000000
H        1.40307756       2.43020162      14.58243212        1       1.00000000       0.00000000       0.00000000       0.00000000       0.00000000       0.00000000       0.00000000
H        4.20923268       2.43020162      14.58243212        1       1.00000000       0.00000000       0.00000000       0.00000000       0.00000000       0.00000000       0.00000000
H        4.20923309       4.05033621       7.77136690        0       1.00000000      -0.00000080       0.00000040       0.00000012      -0.00000135       0.00000069       0.00000057
H       -0.00000006       1.62013451       7.77136754        0       1.00000000      -0.00000138      -0.00000012      -0.00000042       0.00000063      -0.00000047      -0.00000110
H        1.41300846       4.05018932      16.81113016        0       1.00000000       0.00000103       0.00000100      -0.00000063       0.00000057      -0.00000063       0.00000084
H        1.40307765       4.05033593       7.77136681        0       1.00000000       0.00000033       0.00000048       0.00000051       0.00000071       0.00000067       0.00000083
H        5.60237949       1.61998755      16.81113129        0       1.00000000      -0.00000064      -0.00000065       0.00000107      -0.00000082       0.00000060      -0.00000183
H        2.80615535       1.62013469       7.77136706        0       1.00000000      -0.00000036      -0.00000021      -0.00000010      -0.00000045      -0.00000127       0.00000037
18
Lattice="5.612310241546866 0.0 0.0 0.0 4.860403243099165 0.0 0.0 0.0 24.582432123328676" Properties=species:S:1:pos:R:3:tags:I:1:masses:R:1:momenta:R:3:forces:R:3 KEmax=23.26679191048647 iter=119999 volume=670.5618179858607 ns_energy=-11.638031575015841 last_walked_iter_clone=119896 energy=-11.638031575020147 stress="0.022594273152824664 3.88307844785319e-09 -1.939500796471497e-09 3.88307844785319e-09 0.022708673260722557 -6.979005406566813e-09 -1.939500796471497e-09 -6.979005406566813e-09 0.012283600712248637" pbc="T T F"
H        1.40307756       0.81006721      10.00000000        3       1.00000000       0.00000000       0.00000000       0.00000000       0.00000000       0.00000000       0.00000000
H        4.20923268       0.81006721      10.00000000        3       1.00000000       0.00000000       0.00000000       0.00000000       0.00000000       0.00000000       0.00000000
H        0.00000000       3.24026883      10.00000000        3       1.00000000       0.00000000       0.00000000       0.00000000       0.00000000       0.00000000       0.00000000
H        2.80615512       3.24026883      10.00000000        3       1.00000000       0.00000000       0.00000000       0.00000000       0.00000000       0.00000000       0.00000000
H        0.00000000       1.62013441      12.29121606        2       1.00000000       0.00000000       0.00000000       0.00000000       0.00000000       0.00000000       0.00000000
H        2.80615512       1.62013441      12.29121606        2       1.00000000       0.00000000       0.00000000       0.00000000       0.00000000       0.00000000       0.00000000
H        1.40307756       4.05033604      12.29121606        2       1.00000000       0.00000000       0.00000000       0.00000000       0.00000000       0.00000000       0.00000000
H        4.20923268       4.05033604      12.29121606        2       1.00000000       0.00000000       0.00000000       0.00000000       0.00000000       0.00000000       0.00000000
H        0.00000000       0.00000000      14.58243212        1       1.00000000       0.00000000       0.00000000       0.00000000       0.00000000       0.00000000       0.00000000
H        2.80615512       0.00000000      14.58243212        1       1.00000000       0.00000000       0.00000000       0.00000000       0.00000000       0.00000000       0.00000000
H        1.40307756       2.43020162      14.58243212        1       1.00000000       0.00000000       0.00000000       0.00000000       0.00000000       0.00000000       0.00000000
H        4.20923268       2.43020162      14.58243212        1       1.00000000       0.00000000       0.00000000       0.00000000       0.00000000       0.00000000       0.00000000
H        4.20923250       4.05033567       7.77136674        0       1.00000000       0.00000060      -0.00000015      -0.00000152      -0.00000135       0.00000069       0.00000057
H       -0.00000001       1.62013364       7.77136786        0       1.00000000       0.00000132       0.00000015      -0.00000021       0.00000063      -0.00000047      -0.00000110
H        1.41300879       4.05018945      16.81113091        0       1.00000000       0.00000013       0.00000017       0.00000089       0.00000057      -0.00000063       0.00000084