16
Lattice="5.612310241546866 0.0 0.0 0.0 4.860403243099165 0.0 0.0 0.0 44.58243212332868" Properties=species:S:1:pos:R:3:tags:I:1:masses:R:1:momenta:R:3:forces:R:3 KEmax=20.68159280932131 iter=100127 volume=1216.1236359717223 set_wall=T ns_energy=-10.497523026389155 last_walked_iter_clone=100090 energy=-10.497522508831674 stress="0.02661446585237473 8.262698294592799e-09 -1.627354576029974e-08 8.262698294592799e-09 0.026614475147328787 -1.7058706922006017e-08 -1.627354576029974e-08 -1.7058706922006017e-08 0.015081946299462577" pbc="T T F"
H        1.40307756       0.81006721      20.00000000        3       1.00000000       0.00000000       0.00000000       0.00000000       0.00000000       0.00000000       0.00000000
H        4.20923268       0.81006721      20.00000000        3       1.00000000       0.00000000       0.00000000       0.00000000       0.00000000       0.00000000       0.00000000
H        0.00000000       3.24026883      20.00000000        3       1.00000000       0.00000000       0.00000000       0.00000000       0.00000000       0.00000000       0.00000000
H        2.80615512       3.24026883      20.00000000        3       1.00000000       0.00000000       0.00000000       0.00000000       0.00000000       0.00000000       0.00000000
H        0.00000000       1.62013441      22.29121606        2       1.00000000       0.00000000       0.00000000       0.00000000       0.00000000       0.00000000       0.00000000
H        2.80615512       1.62013441      22.29121606        2       1.00000000       0.00000000       0.00000000       0.00000000       0.00000000       0.00000000       0.00000000
H        1.40307756       4.05033604      22.29121606        2       1.00000000       0.00000000       0.00000000       0.00000000       0.00000000       0.00000000       0.00000000
H        4.20923268       4.05033604      22.29121606        2       1.00000000       0.00000000       0.00000000       0.00000000       0.00000000       0.00000000       0.00000000
H        0.00000000       0.00000000      24.58243212        1       1.00000000       0.00000000       0.00000000       0.00000000       0.00000000       0.00000000       0.00000000
H        2.80615512       0.00000000      24.58243212        1       1.00000000       0.00000000       0.00000000       0.00000000       0.00000000       0.00000000       0.00000000
H        1.40307756       2.43020162      24.58243212        1       1.00000000       0.00000000       0.00000000       0.00000000       0.00000000       0.00000000       0.00000000
H        4.20923268       2.43020162      24.58243212        1       1.00000000       0.00000000       0.00000000       0.00000000       0.00000000       0.00000000       0.00000000
H        5.61231077       1.62013459      26.81106526        0       1.00000000       0.00000029      -0.00000090       0.00000181      -0.00152312      -0.00040488       0.00000244
H        4.20923272       4.05033600      26.81106504        0       1.00000000      -0.00000054      -0.00000082       0.00000019       0.00011765       0.00039722      -0.00000110
H        2.80615562       1.62013473      26.81106454        0       1.00000000       0.00000073      -0.00000021       0.00000094       0.00152251      -0.00044566       0.00000360
H        1.40307755       4.05033648      26.81106488        0       1.00000000       0.00000053      -0.00000021       0.00000004      -0.00011569       0.00045474       0.00000137
16
Lattice="5.612310241546866 0.0 0.0 0.0 4.860403243099165 0.0 0.0 0.0 44.58243212332868" Properties=species:S:1:pos:R:3:tags:I:1:masses:R:1:momenta:R:3:forces:R:3 KEmax=20.68159280932131 iter=100127 volume=1216.1236359717223 set_wall=T ns_energy=-10.497523026389029 last_walked_iter_clone=98903 energy=-10.497522508831674 stress="0.02661446585237473 8.262698294592799e-09 -1.627354576029974e-08 8.262698294592799e-09 0.026614475147328787 -1.7058706922006017e-08 -1.627354576029974e-08 -1.7058706922006017e-08 0.015081946299462577" pbc="T T F"
H        1.40307756       0.81006721      20.00000000        3       1.00000000       0.00000000       0.00000000       0.00000000       0.00000000       0.00000000       0.00000000
H        4.20923268       0.81006721      20.00000000        3       1.00000000       0.00000000       0.00000000       0.00000000       0.00000000       0.00000000       0.00000000
H        0.00000000       3.24026883      20.00000000        3       1.00000000       0.00000000       0.00000000       0.00000000       0.00000000       0.00000000       0.00000000
H        2.80615512       3.24026883      20.00000000        3       1.00000000       0.00000000       0.00000000       0.00000000       0.00000000       0.00000000       0.00000000
H        0.00000000       1.62013441      22.29121606        2       1.00000000       0.00000000       0.00000000       0.00000000       0.00000000       0.00000000       0.00000000
H        2.80615512       1.62013441      22.29121606        2       1.00000000       0.00000000       0.00000000       0.00000000       0.00000000       0.00000000       0.00000000
H        1.40307756       4.05033604      22.29121606        2       1.00000000       0.00000000       0.00000000       0.00000000       0.00000000       0.00000000       0.00000000
H        4.20923268       4.05033604      22.29121606        2       1.00000000       0.00000000       0.00000000       0.00000000       0.00000000       0.00000000       0.00000000
H        0.00000000       0.00000000      24.58243212        1       1.00000000       0.00000000       0.00000000       0.00000000       0.00000000       0.00000000       0.00000000
H        2.80615512       0.00000000      24.58243212        1       1.00000000       0.00000000       0.00000000       0.00000000       0.00000000       0.00000000       0.00000000
H        1.40307756       2.43020162      24.58243212        1       1.00000000       0.00000000       0.00000000       0.00000000       0.00000000       0.00000000       0.00000000
H        4.20923268       2.43020162      24.58243212        1       1.00000000       0.00000000       0.00000000       0.00000000       0.00000000       0.00000000       0.00000000
H        0.00000023       1.62013435      26.81106528        0       1.00000000       0.00000059       0.00000115       0.00000078      -0.00152312      -0.00040488       0.00000244
H        4.20923284       4.05033579      26.81106475        0       1.00000000       0.00000012      -0.00000099       0.00000006       0.00011765       0.00039722      -0.00000110
H        2.80615525       1.62013442      26.81106512        0       1.00000000      -0.00000021      -0.00000067      -0.00000115       0.00152251      -0.00044566       0.00000360
H        1.40307798       4.05033565      26.81106431        0       1.00000000      -0.00000068       0.00000066      -0.00000093      -0.00011569       0.00045474       0.00000137
16
Lattice="5.612310241546866 0.0 0.0 0.0 4.860403243099165 0.0 0.0 0.0 44.58243212332868" Properties=species:S:1:pos:R:3:tags:I:1:masses:R:1:momenta:R:3:forces:R:3 KEmax=20.68159280932131 iter=100127 volume=1216.1236359717223 set_wall=T ns_energy=-10.497523026388977 last_walked_iter_clone=98345 energy=-10.497522508831674 stress="0.02661446585237473 8.262698294592799e-09 -1.627354576029974e-08 8.262698294592799e-09 0.026614475147328787 -1.7058706922006017e-08 -1.627354576029974e-08 -1.7058706922006017e-08 0.015081946299462577" pbc="T T F"
H        1.40307756       0.81006721      20.00000000        3       1.00000000       0.00000000       0.00000000       0.00000000       0.00000000       0.00000000       0.00000000
H        4.20923268       0.81006721      20.00000000        3       1.00000000       0.00000000       0.00000000       0.00000000       0.00000000       0.00000000       0.00000000
H        0.00000000       3.24026883      20.00000000        3       1.00000000       0.00000000       0.00000000       0.00000000       0.00000000       0.00000000       0.00000000
H        2.80615512       3.24026883      20.00000000        3       1.00000000       0.00000000       0.00000000       0.00000000       0.00000000       0.00000000       0.00000000
H        0.00000000       1.62013441      22.29121606        2       1.00000000       0.00000000       0.00000000       0.00000000       0.00000000       0.00000000       0.00000000
H        2.80615512       1.62013441      22.29121606        2       1.00000000       0.00000000       0.00000000       0.00000000       0.00000000       0.00000000       0.00000000
H        1.40307756       4.05033604      22.29121606        2       1.00000000       0.00000000       0.00000000       0.00000000       0.00000000       0.00000000       0.00000000
H        4.20923268       4.05033604      22.29121606        2       1.00000000       0.00000000       0.00000000       0.00000000       0.00000000       0.00000000       0.00000000
H        0.00000000       0.00000000      24.58243212        1       1.00000000       0.00000000       0.00000000       0.00000000       0.00000000       0.00000000       0.00000000
H        2.80615512       0.00000000      24.58243212        1       1.00000000       0.00000000       0.00000000       0.00000000       0.00000000       0.00000000       0.00000000
H        1.40307756       2.43020162      24.58243212        1       1.00000000       0.00000000       0.00000000       0.00000000       0.00000000       0.00000000       0.00000000
H        4.20923268       2.43020162      24.58243212        1       1.00000000       0.00000000       0.00000000       0.00000000       0.00000000       0.00000000       0.00000000
H        0.00000036       1.62013402      26.81106475        0       1.00000000       0.00000030      -0.00000124      -0.00000055      -0.00152312      -0.00040488       0.00000244
H        4.20923320       4.05033549      26.81106456        0       1.00000000       0.00000147       0.00000129       0.00000010       0.00011765       0.00039722      -0.00000110
H        2.80615554       1.62013399      26.81106522        0       1.00000000       0.00000004      -0.00000065       0.00000040       0.00152251      -0.00044566       0.00000360
H        1.40307771       4.05033556      26.81106511        0       1.00000000      -0.00000078       0.00000003       0.00000011      -0.00011569       0.00045474       0.00000137
16
Lattice="5.612310241546866 0.0 0.0 0.0 4.860403243099165 0.0 0.0 0.0 44.58243212332868" Properties=species:S:1:pos:R:3:tags:I:1:masses:R:1:momenta:R:3:forces:R:3 KEmax=20.68159280932131 iter=100127 volume=1216.1236359717223 set_wall=T ns_energy=-10.497523026388976 last_walked_iter_clone=100077 energy=-10.497522508831674 stress="0.02661446585237473 8.262698294592799e-09 -1.627354576029974e-08 8.262698294592799e-09 0.026614475147328787 -1.7058706922006017e-08 -1.627354576029974e-08 -1.7058706922006017e-08 0.015081946299462577" pbc="T T F"
H        1.40307756       0.81006721      20.00000000        3       1.00000000       0.00000000       0.00000000       0.00000000       0.00000000       0.00000000       0.00000000
H        4.20923268       0.81006721      20.00000000        3       1.00000000       0.00000000       0.00000000       0.00000000       0.00000000       0.00000000       0.00000000
H        0.00000000       3.24026883      20.00000000        3       1.00000000       0.00000000       0.00000000       0.00000000       0.00000000       0.00000000       0.00000000
H        2.80615512       3.24026883      20.00000000        3       1.00000000       0.00000000       0.00000000       0.00000000       0.00000000       0.00000000       0.00000000
H        0.00000000       1.62013441      22.29121606        2       1.00000000       0.00000000       0.00000000       0.00000000       0.00000000       0.00000000       0.00000000
H        2.80615512       1.62013441      22.29121606        2       1.00000000       0.00000000       0.00000000       0.00000000       0.00000000       0.00000000       0.00000000
H        1.40307756       4.05033604      22.29121606        2       1.00000000       0.00000000       0.00000000       0.00000000       0.00000000       0.00000000       0.00000000
H        4.20923268       4.05033604      22.29121606        2       1.00000000       0.00000000       0.00000000       0.00000000       0.00000000       0.00000000       0.00000000
H        0.00000000       0.00000000      24.58243212        1       1.00000000       0.00000000       0.00000000       0.00000000       0.00000000       0.00000000       0.00000000
H        2.80615512       0.00000000      24.58243212        1       1.00000000       0.00000000       0.00000000       0.00000000       0.00000000       0.00000000       0.00000000
H        1.40307756       2.43020162      24.58243212        1       1.00000000       0.00000000       0.00000000       0.00000000       0.00000000       0.00000000       0.00000000
H        4.20923268       2.43020162      24.58243212        1       1.00000000       0.00000000       0.00000000       0.00000000       0.00000000       0.00000000       0.00000000
H        5.61230940       1.62013531      26.81106479        0       1.00000000      -0.00000090       0.00000039       0.00000018      -0.00152312      -0.00040488       0.00000244
H        4.20923299       4.05033692      26.81106522        0       1.00000000       0.00000049      -0.00000018      -0.00000060       0.00011765       0.00039722      -0.00000110
H        2.80615446       1.62013510      26.81106514        0       1.00000000      -0.00000015      -0.00000085       0.00000033       0.00152251      -0.00044566       0.00000360
H        1.40307798       4.05033701      26.81106485        0       1.00000000      -0.00000116      -0.00000021      -0.00000005      -0.00011569       0.00045474       0.00000137
16
Lattice="5.612310241546866 0.0 0.0 0.0 4.860403243099165 0.0 0.0 0.0 44.58243212332868" Properties=species:S:1:pos:R:3:tags:I:1:masses:R:1:momenta:R:3:forces:R:3 KEmax=20.68159280932131 iter=100127 volume=1216.1236359717223 set_wall=T ns_energy=-10.497523026389075 last_walked_iter_clone=100032 energy=-10.497522508831674 stress="0.02661446585237473 8.262698294592799e-09 -1.627354576029974e-08 8.262698294592799e-09 0.026614475147328787 -1.7058706922006017e-08 -1.627354576029974e-08 -1.7058706922006017e-08 0.015081946299462577" pbc="T T F"
H        1.40307756       0.81006721      20.00000000        3       1.00000000       0.00000000       0.00000000       0.00000000       0.00000000       0.00000000       0.00000000
H        4.20923268       0.81006721      20.00000000        3       1.00000000       0.00000000       0.00000000       0.00000000       0.00000000       0.00000000       0.00000000
H        0.00000000       3.24026883      20.00000000        3       1.00000000       0.00000000       0.00000000       0.00000000       0.00000000       0.00000000       0.00000000
H        2.80615512       3.24026883      20.00000000        3       1.00000000       0.00000000       0.00000000       0.00000000       0.00000000       0.00000000       0.00000000
H        0.00000000       1.62013441      22.29121606        2       1.00000000       0.00000000       0.00000000       0.00000000       0.00000000       0.00000000       0.00000000
H        2.80615512       1.62013441      22.29121606        2       1.00000000       0.00000000       0.00000000       0.00000000       0.00000000       0.00000000       0.00000000
H        1.40307756       4.05033604      22.29121606        2       1.00000000       0.00000000       0.00000000       0.00000000       0.00000000       0.00000000       0.00000000
H        4.20923268       4.05033604      22.29121606        2       1.00000000       0.00000000       0.00000000       0.00000000       0.00000000       0.00000000       0.00000000
H        0.00000000       0.00000000      24.58243212        1       1.00000000       0.00000000       0.00000000       0.00000000       0.00000000       0.00000000       0.00000000
H        2.80615512       0.00000000      24.58243212        1       1.00000000       0.00000000       0.00000000       0.00000000       0.00000000       0.00000000       0.00000000
H        1.40307756       2.43020162      24.58243212        1       1.00000000       0.00000000       0.00000000       0.00000000       0.00000000       0.00000000       0.00000000
H        4.20923268       2.43020162      24.58243212        1       1.00000000       0.00000000       0.00000000       0.00000000       0.00000000       0.00000000       0.00000000
H        5.61231044       1.62013434      26.81106530        0       1.00000000      -0.00000092       0.00000173      -0.00000040      -0.00152312      -0.00040488       0.00000244
H        4.20923271       4.05033569      26.81106475        0       1.00000000       0.00000041      -0.00000026      -0.00000014       0.00011765       0.00039722      -0.00000110
H        2.80615522       1.62013430      26.81106508        0       1.00000000       0.00000047       0.00000063      -0.00000099       0.00152251      -0.00044566       0.00000360
H        1.40307808       4.05033573      26.81106429        0       1.00000000      -0.00000064       0.00000002       0.00000017      -0.00011569       0.00045474       0.00000137
16
Lattice="5.612310241546866 0.0 0.0 0.0 4.860403243099165 0.0 0.0 0.0 44.58243212332868" Properties=species:S:1:pos:R:3:tags:I:1:masses:R:1:momenta:R:3:forces:R:3 KEmax=20.68159280932131 iter=100127 volume=1216.1236359717223 set_wall=T ns_energy=-10.497523026388954 last_walked_iter_clone=99870 energy=-10.497522508831674 stress="0.02661446585237473 8.262698294592799e-09 -1.627354576029974e-08 8.262698294592799e-09 0.026614475147328787 -1.7058706922006017e-08 -1.627354576029974e-08 -1.7058706922006017e-08 0.015081946299462577" pbc="T T F"
H        1.40307756       0.81006721      20.00000000        3       1.00000000       0.00000000       0.00000000       0.00000000       0.00000000       0.00000000       0.00000000
H        4.20923268       0.81006721      20.00000000        3       1.00000000       0.00000000       0.00000000       0.00000000       0.00000000       0.00000000       0.00000000
H        0.00000000       3.24026883      20.00000000        3       1.00000000       0.00000000       0.00000000       0.00000000       0.00000000       0.00000000       0.00000000
H        2.80615512       3.24026883      20.00000000        3       1.00000000       0.00000000       0.00000000       0.00000000       0.00000000       0.00000000       0.00000000
H        0.00000000       1.62013441      22.29121606        2       1.00000000       0.00000000       0.00000000       0.00000000       0.00000000       0.00000000       0.00000000
H        2.80615512       1.62013441      22.29121606        2       1.00000000       0.00000000       0.00000000       0.00000000       0.00000000       0.00000000       0.00000000
H        1.40307756       4.05033604      22.29121606        2       1.00000000       0.00000000       0.00000000       0.00000000       0.00000000       0.00000000       0.00000000
H        4.20923268       4.05033604      22.29121606        2       1.00000000       0.00000000       0.00000000       0.00000000       0.00000000       0.00000000       0.00000000
H        0.00000000       0.00000000      24.58243212        1       1.00000000       0.00000000       0.00000000       0.00000000       0.00000000       0.00000000       0.00000000
H        2.80615512       0.00000000      24.58243212        1       1.00000000       0.00000000       0.00000000       0.00000000       0.00000000       0.00000000       0.00000000
H        1.40307756       2.43020162      24.58243212        1       1.00000000       0.00000000       0.00000000       0.00000000       0.00000000       0.00000000       0.00000000
H        4.20923268       2.43020162      24.58243212        1       1.00000000       0.00000000       0.00000000       0.00000000       0.00000000       0.00000000       0.00000000
H       -0.00000021       1.62013428      26.81106532        0       1.00000000      -0.00000034       0.00000045      -0.00000045      -0.00152312      -0.00040488       0.00000244
H        4.20923285       4.05033615      26.81106460        0       1.00000000       0.00000024      -0.00000115       0.00000044       0.00011765       0.00039722      -0.00000110
H        2.80615500       1.62013449      26.81106527        0       1.00000000      -0.00000160      -0.00000016      -0.00000083       0.00152251      -0.00044566       0.00000360
H        1.40307780       4.05033611      26.81106499        0       1.00000000       0.00000050       0.00000092      -0.00000096      -0.00011569       0.00045474       0.00000137
16
Lattice="5.612310241546866 0.0 0.0 0.0 4.860403243099165 0.0 0.0 0.0 44.58243212332868" Properties=species:S:1:pos:R:3:tags:I:1:masses:R:1:momenta:R:3:forces:R:3 KEmax=20.68159280932131 iter=100127 volume=1216.1236359717223 set_wall=T ns_energy=-10.49752302638909 last_walked_iter_clone=99150 energy=-10.497522508831674 stress="0.02661446585237473 8.262698294592799e-09 -1.627354576029974e-08 8.262698294592799e-09 0.026614475147328787 -1.7058706922006017e-08 -1.627354576029974e-08 -1.7058706922006017e-08 0.015081946299462577" pbc="T T F"
H        1.40307756       0.81006721      20.00000000        3       1.00000000       0.00000000       0.00000000       0.00000000       0.00000000       0.00000000       0.00000000
H        4.20923268       0.81006721      20.00000000        3       1.00000000       0.00000000       0.00000000       0.00000000       0.00000000       0.00000000       0.00000000
H        0.00000000       3.24026883      20.00000000        3       1.00000000       0.00000000       0.00000000       0.00000000       0.00000000       0.00000000       0.00000000
H        2.80615512       3.24026883      20.00000000        3       1.00000000       0.00000000       0.00000000       0.00000000       0.00000000       0.00000000       0.00000000
H        0.00000000       1.62013441      22.29121606        2       1.00000000       0.00000000       0.00000000       0.00000000       0.00000000       0.00000000       0.00000000
H        2.80615512       1.62013441      22.29121606        2       1.00000000       0.00000000       0.00000000       0.00000000       0.00000000       0.00000000       0.00000000
H        1.40307756       4.05033604      22.29121606        2       1.00000000       0.00000000       0.00000000       0.00000000       0.00000000       0.00000000       0.00000000
H        4.20923268       4.05033604      22.29121606        2       1.00000000       0.00000000       0.00000000       0.00000000       0.00000000       0.00000000       0.00000000
H        0.00000000       0.00000000      24.58243212        1       1.00000000       0.00000000       0.00000000       0.00000000       0.00000000       0.00000000       0.00000000
H        2.80615512       0.00000000      24.58243212        1       1.00000000       0.00000000       0.00000000       0.00000000       0.00000000       0.00000000       0.00000000
H        1.40307756       2.43020162      24.58243212        1       1.00000000       0.00000000       0.00000000       0.00000000       0.00000000       0.00000000       0.00000000
H        4.20923268       2.43020162      24.58243212        1       1.00000000       0.00000000       0.00000000       0.00000000       0.00000000       0.00000000       0.00000000
H       -0.00000005       1.62013403      26.81106510        0       1.00000000      -0.00000035       0.00000086       0.00000012      -0.00152312      -0.00040488       0.00000244
H        4.20923220       4.05033545      26.81106497        0       1.00000000      -0.00000093       0.00000102       0.00000100       0.00011765       0.00039722      -0.00000110
H        2.80615526       1.62013376      26.81106506        0       1.00000000       0.00000038      -0.00000029       0.00000009       0.00152251      -0.00044566       0.00000360
H        1.40307675       4.05033583      26.81106451        0       1.00000000       0.00000057       0.00000119       0.00000012      -0.00011569       0.00045474       0.00000137
16
Lattice="5.612310241546866 0.0 0.0 0.0 4.860403243099165 0.0 0.0 0.0 44.58243212332868" Properties=species:S:1:pos:R:3:tags:I:1:masses:R:1:momenta:R:3:forces:R:3 KEmax=20.68159280932131 iter=100127 volume=1216.1236359717223 set_wall=T ns_energy=-10.497523026388947 last_walked_iter_clone=97383 energy=-10.497522508831674 stress="0.02661446585237473 8.262698294592799e-09 -1.627354576029974e-08 8.262698294592799e-09 0.026614475147328787 -1.7058706922006017e-08 -1.627354576029974e-08 -1.7058706922006017e-08 0.015081946299462577" pbc="T T F"
H        1.40307756       0.81006721      20.00000000        3       1.00000000       0.00000000       0.00000000       0.00000000       0.00000000       0.00000000       0.00000000
H        4.20923268       0.81006721      20.00000000        3       1.00000000       0.00000000       0.00000000       0.00000000       0.00000000       0.00000000       0.00000000
H        0.00000000       3.24026883      20.00000000        3       1.00000000       0.00000000       0.00000000       0.00000000       0.00000000       0.00000000       0.00000000
H        2.80615512       3.24026883      20.00000000        3       1.00000000       0.00000000       0.00000000       0.00000000       0.00000000       0.00000000       0.00000000
H        0.00000000       1.62013441      22.29121606        2       1.00000000       0.00000000       0.00000000       0.00000000       0.00000000       0.00000000       0.00000000
H        2.80615512       1.62013441      22.29121606        2       1.00000000       0.00000000       0.00000000       0.00000000       0.00000000       0.00000000       0.00000000
H        1.40307756       4.05033604      22.29121606        2       1.00000000       0.00000000       0.00000000       0.00000000       0.00000000       0.00000000       0.00000000
H        4.20923268       4.05033604      22.29121606        2       1.00000000       0.00000000       0.00000000       0.00000000       0.00000000       0.00000000       0.00000000
H        0.00000000       0.00000000      24.58243212        1       1.00000000       0.00000000       0.00000000       0.00000000       0.00000000       0.00000000       0.00000000
H        2.80615512       0.00000000      24.58243212        1       1.00000000       0.00000000       0.00000000       0.00000000       0.00000000       0.00000000       0.00000000
H        1.40307756       2.43020162      24.58243212        1       1.00000000       0.00000000       0.00000000       0.00000000       0.00000000       0.00000000       0.00000000
H        4.20923268       2.43020162      24.58243212        1       1.00000000       0.00000000       0.00000000       0.00000000       0.00000000       0.00000000       0.00000000
H        5.61231058       1.62013327      26.81106502        0       1.00000000      -0.00000084      -0.00000068       0.00000010      -0.00152312      -0.00040488       0.00000244
H        4.20923321       4.05033476      26.81106432        0       1.00000000       0.00000058      -0.00000114       0.00000077       0.00011765       0.00039722      -0.00000110
H        2.80615554       1.62013362      26.81106522        0       1.00000000      -0.00000050      -0.00000091       0.00000030       0.00152251      -0.00044566       0.00000360
H        1.40307803       4.05033528      26.81106498        0       1.00000000       0.00000012      -0.00000036       0.00000015      -0.00011569       0.00045474       0.00000137
16
Lattice="5.612310241546866 0.0 0.0 0.0 4.860403243099165 0.0 0.0 0.0 44.58243212332868" Properties=species:S:1:pos:R:3:tags:I:1:masses:R:1:momenta:R:3:forces:R:3 KEmax=20.68159280932131 iter=100127 volume=1216.1236359717223 set_wall=T ns_energy=-10.497523026388967 last_walked_iter_clone=98842 energy=-10.497522508831674 stress="0.02661446585237473 8.262698294592799e-09 -1.627354576029974e-08 8.262698294592799e-09 0.026614475147328787 -1.7058706922006017e-08 -1.627354576029974e-08 -1.7058706922006017e-08 0.015081946299462577" pbc="T T F"
H        1.40307756       0.81006721      20.00000000        3       1.00000000       0.00000000       0.00000000       0.00000000       0.00000000       0.00000000       0.00000000
H        4.20923268       0.81006721      20.00000000        3       1.00000000       0.00000000       0.00000000       0.00000000       0.00000000       0.00000000       0.00000000
H        0.00000000       3.24026883      20.00000000        3       1.00000000       0.00000000       0.00000000       0.00000000       0.00000000       0.00000000       0.00000000
H        2.80615512       3.24026883      20.00000000        3       1.00000000       0.00000000       0.00000000       0.00000000       0.00000000       0.00000000       0.00000000
H        0.00000000       1.62013441      22.29121606        2       1.00000000       0.00000000       0.00000000       0.00000000       0.00000000       0.00000000       0.00000000
H        2.80615512       1.62013441      22.29121606        2       1.00000000       0.00000000       0.00000000       0.00000000       0.00000000       0.00000000       0.00000000
H        1.40307756       4.05033604      22.29121606        2       1.00000000       0.00000000       0.00000000       0.00000000       0.00000000       0.00000000       0.00000000
H        4.20923268       4.05033604      22.29121606        2       1.00000000       0.00000000       0.00000000       0.00000000       0.00000000       0.00000000       0.00000000
H        0.00000000       0.00000000      24.58243212        1       1.00000000       0.00000000       0.00000000       0.00000000       0.00000000       0.00000000       0.00000000