16
Lattice="5.612310241546866 0.0 0.0 0.0 4.860403243099165 0.0 0.0 0.0 44.58243212332868" Properties=species:S:1:pos:R:3:tags:I:1:masses:R:1:momenta:R:3 KEmax=20.68159280932131 iter=99 volume=1216.1236359717223 set_wall=T ns_energy=10.543977124953948 last_walked_iter_clone=73 ns_P=0.0 config_n_global=99 ns_KE=17.45656015294077 pbc="T T F"
H        1.40307756       0.81006721      20.00000000        3       1.00000000       0.00000000       0.00000000       0.00000000
H        4.20923268       0.81006721      20.00000000        3       1.00000000       0.00000000       0.00000000       0.00000000
H        0.00000000       3.24026883      20.00000000        3       1.00000000       0.00000000       0.00000000       0.00000000
H        2.80615512       3.24026883      20.00000000        3       1.00000000       0.00000000       0.00000000       0.00000000
H        0.00000000       1.62013441      22.29121606        2       1.00000000       0.00000000       0.00000000       0.00000000
H        2.80615512       1.62013441      22.29121606        2       1.00000000       0.00000000       0.00000000       0.00000000
H        1.40307756       4.05033604      22.29121606        2       1.00000000       0.00000000       0.00000000       0.00000000
H        4.20923268       4.05033604      22.29121606        2       1.00000000       0.00000000       0.00000000       0.00000000
H        0.00000000       0.00000000      24.58243212        1       1.00000000       0.00000000       0.00000000       0.00000000
H        2.80615512       0.00000000      24.58243212        1       1.00000000       0.00000000       0.00000000       0.00000000
H        1.40307756       2.43020162      24.58243212        1       1.00000000       0.00000000       0.00000000       0.00000000
H        4.20923268       2.43020162      24.58243212        1       1.00000000       0.00000000       0.00000000       0.00000000
H        4.91183882       1.62281211      35.88098045        0       1.00000000       1.20275286      -1.29004663      -4.26482814
H        4.30226097       4.63018604      32.25716732        0       1.00000000       1.00775638       0.38404279       0.70501540
H        3.20140732       1.15341524      33.61439911        0       1.00000000      -0.61568489      -1.27498233      -0.56311481
H        0.23263054       2.40414928      38.50234902        0       1.00000000      -0.14459985      -2.38899571      -1.97571817
16
Lattice="5.612310241546866 0.0 0.0 0.0 4.860403243099165 0.0 0.0 0.0 44.58243212332868" Properties=species:S:1:pos:R:3:tags:I:1:masses:R:1:momenta:R:3 KEmax=20.68159280932131 iter=199 volume=1216.1236359717223 set_wall=T ns_energy=6.829549659378199 last_walked_iter_clone=161 ns_P=0.0 config_n_global=199 ns_KE=12.104052198333644 pbc="T T F"
H        1.40307756       0.81006721      20.00000000        3       1.00000000       0.00000000       0.00000000       0.00000000
H        4.20923268       0.81006721      20.00000000        3       1.00000000       0.00000000       0.00000000       0.00000000
H        0.00000000       3.24026883      20.00000000        3       1.00000000       0.00000000       0.00000000       0.00000000
H        2.80615512       3.24026883      20.00000000        3       1.00000000       0.00000000       0.00000000       0.00000000
H        0.00000000       1.62013441      22.29121606        2       1.00000000       0.00000000       0.00000000       0.00000000
H        2.80615512       1.62013441      22.29121606        2       1.00000000       0.00000000       0.00000000       0.00000000
H        1.40307756       4.05033604      22.29121606        2       1.00000000       0.00000000       0.00000000       0.00000000
H        4.20923268       4.05033604      22.29121606        2       1.00000000       0.00000000       0.00000000       0.00000000
H        0.00000000       0.00000000      24.58243212        1       1.00000000       0.00000000       0.00000000       0.00000000
H        2.80615512       0.00000000      24.58243212        1       1.00000000       0.00000000       0.00000000       0.00000000
H        1.40307756       2.43020162      24.58243212        1       1.00000000       0.00000000       0.00000000       0.00000000
H        4.20923268       2.43020162      24.58243212        1       1.00000000       0.00000000       0.00000000       0.00000000
H        3.82788130       4.96055458      26.38827949        0       1.00000000       1.21272128       1.67670185      -0.12634833
H        4.06341482       1.21446596      39.08163860        0       1.00000000       3.09520416       1.18543287      -0.60490104
H        4.31723556       4.69709543      34.14781839        0       1.00000000       2.00030777       0.08641929      -1.32388961
H        5.50195929       4.60810861      28.02550243        0       1.00000000       0.32697272      -1.32756543      -0.96330111
16
Lattice="5.612310241546866 0.0 0.0 0.0 4.860403243099165 0.0 0.0 0.0 44.58243212332868" Properties=species:S:1:pos:R:3:tags:I:1:masses:R:1:momenta:R:3 KEmax=20.68159280932131 iter=299 volume=1216.1236359717223 set_wall=T ns_energy=4.013442721385956 last_walked_iter_clone=276 ns_P=0.0 config_n_global=299 ns_KE=11.892607794058598 pbc="T T F"
H        1.40307756       0.81006721      20.00000000        3       1.00000000       0.00000000       0.00000000       0.00000000
H        4.20923268       0.81006721      20.00000000        3       1.00000000       0.00000000       0.00000000       0.00000000
H        0.00000000       3.24026883      20.00000000        3       1.00000000       0.00000000       0.00000000       0.00000000
H        2.80615512       3.24026883      20.00000000        3       1.00000000       0.00000000       0.00000000       0.00000000
H        0.00000000       1.62013441      22.29121606        2       1.00000000       0.00000000       0.00000000       0.00000000
H        2.80615512       1.62013441      22.29121606        2       1.00000000       0.00000000       0.00000000       0.00000000
H        1.40307756       4.05033604      22.29121606        2       1.00000000       0.00000000       0.00000000       0.00000000
H        4.20923268       4.05033604      22.29121606        2       1.00000000       0.00000000       0.00000000       0.00000000
H        0.00000000       0.00000000      24.58243212        1       1.00000000       0.00000000       0.00000000       0.00000000
H        2.80615512       0.00000000      24.58243212        1       1.00000000       0.00000000       0.00000000       0.00000000
H        1.40307756       2.43020162      24.58243212        1       1.00000000       0.00000000       0.00000000       0.00000000
H        4.20923268       2.43020162      24.58243212        1       1.00000000       0.00000000       0.00000000       0.00000000
H        2.01816366       4.23661370      38.65912280        0       1.00000000      -0.21591661      -1.30048017      -0.23327505
H        0.14721300       3.75137465      43.83642490        0       1.00000000      -1.33030020       0.36871272       1.56108622
H        2.90109033       2.95349646      27.26616161        0       1.00000000       2.00546026      -0.54631845      -0.80408862
H        4.28420369       4.14505882      36.81380417        0       1.00000000      -1.28902246      -1.30621724       3.05214944
16
Lattice="5.612310241546866 0.0 0.0 0.0 4.860403243099165 0.0 0.0 0.0 44.58243212332868" Properties=species:S:1:pos:R:3:tags:I:1:masses:R:1:momenta:R:3 KEmax=20.68159280932131 iter=399 volume=1216.1236359717223 set_wall=T ns_energy=1.7158905293741236 last_walked_iter_clone=346 ns_P=0.0 config_n_global=399 ns_KE=9.59353503599537 pbc="T T F"
H        1.40307756       0.81006721      20.00000000        3       1.00000000       0.00000000       0.00000000       0.00000000
H        4.20923268       0.81006721      20.00000000        3       1.00000000       0.00000000       0.00000000       0.00000000
H        0.00000000       3.24026883      20.00000000        3       1.00000000       0.00000000       0.00000000       0.00000000
H        2.80615512       3.24026883      20.00000000        3       1.00000000       0.00000000       0.00000000       0.00000000
H        0.00000000       1.62013441      22.29121606        2       1.00000000       0.00000000       0.00000000       0.00000000
H        2.80615512       1.62013441      22.29121606        2       1.00000000       0.00000000       0.00000000       0.00000000
H        1.40307756       4.05033604      22.29121606        2       1.00000000       0.00000000       0.00000000       0.00000000
H        4.20923268       4.05033604      22.29121606        2       1.00000000       0.00000000       0.00000000       0.00000000
H        0.00000000       0.00000000      24.58243212        1       1.00000000       0.00000000       0.00000000       0.00000000
H        2.80615512       0.00000000      24.58243212        1       1.00000000       0.00000000       0.00000000       0.00000000
H        1.40307756       2.43020162      24.58243212        1       1.00000000       0.00000000       0.00000000       0.00000000
H        4.20923268       2.43020162      24.58243212        1       1.00000000       0.00000000       0.00000000       0.00000000
H        4.25358887       3.61202101      43.64520842        0       1.00000000      -0.11083936      -2.17272421      -0.63872921
H        2.64232803       4.65936781      39.08573435        0       1.00000000       0.56592967      -0.47954117       2.11387504
H        4.90356649       4.28629253      40.74857595        0       1.00000000      -1.81339410       0.78231232       1.90113903
H        1.24558490       3.58510045      43.68264212        0       1.00000000       0.68221444       0.21330498       1.00085940
16
Lattice="5.612310241546866 0.0 0.0 0.0 4.860403243099165 0.0 0.0 0.0 44.58243212332868" Properties=species:S:1:pos:R:3:tags:I:1:masses:R:1:momenta:R:3 KEmax=20.68159280932131 iter=499 volume=1216.1236359717223 set_wall=T ns_energy=0.2278323887541603 last_walked_iter_clone=420 ns_P=0.0 config_n_global=499 ns_KE=7.988383260859829 pbc="T T F"
H        1.40307756       0.81006721      20.00000000        3       1.00000000       0.00000000       0.00000000       0.00000000
H        4.20923268       0.81006721      20.00000000        3       1.00000000       0.00000000       0.00000000       0.00000000
H        0.00000000       3.24026883      20.00000000        3       1.00000000       0.00000000       0.00000000       0.00000000
H        2.80615512       3.24026883      20.00000000        3       1.00000000       0.00000000       0.00000000       0.00000000
H        0.00000000       1.62013441      22.29121606        2       1.00000000       0.00000000       0.00000000       0.00000000
H        2.80615512       1.62013441      22.29121606        2       1.00000000       0.00000000       0.00000000       0.00000000
H        1.40307756       4.05033604      22.29121606        2       1.00000000       0.00000000       0.00000000       0.00000000
H        4.20923268       4.05033604      22.29121606        2       1.00000000       0.00000000       0.00000000       0.00000000
H        0.00000000       0.00000000      24.58243212        1       1.00000000       0.00000000       0.00000000       0.00000000
H        2.80615512       0.00000000      24.58243212        1       1.00000000       0.00000000       0.00000000       0.00000000
H        1.40307756       2.43020162      24.58243212        1       1.00000000       0.00000000       0.00000000       0.00000000
H        4.20923268       2.43020162      24.58243212        1       1.00000000       0.00000000       0.00000000       0.00000000
H        6.10148506       3.64130290      36.13029438        0       1.00000000       1.83864816       0.55985138      -1.28607563
H        1.85248372       4.23962993      29.19956980        0       1.00000000       0.63252679      -0.13826288       0.89370579
H        4.81149480       3.81333554      28.09129688        0       1.00000000       0.44648791      -1.12607802      -0.57202072
H        2.20428003       0.02838320      40.50272409        0       1.00000000      -1.17691392      -1.84482728       1.68156880
16
Lattice="5.612310241546866 0.0 0.0 0.0 4.860403243099165 0.0 0.0 0.0 44.58243212332868" Properties=species:S:1:pos:R:3:tags:I:1:masses:R:1:momenta:R:3 KEmax=20.68159280932131 iter=599 volume=1216.1236359717223 set_wall=T ns_energy=-0.862526628457909 last_walked_iter_clone=546 ns_P=0.0 config_n_global=599 ns_KE=6.846493370411318 pbc="T T F"
H        1.40307756       0.81006721      20.00000000        3       1.00000000       0.00000000       0.00000000       0.00000000
H        4.20923268       0.81006721      20.00000000        3       1.00000000       0.00000000       0.00000000       0.00000000
H        0.00000000       3.24026883      20.00000000        3       1.00000000       0.00000000       0.00000000       0.00000000
H        2.80615512       3.24026883      20.00000000        3       1.00000000       0.00000000       0.00000000       0.00000000
H        0.00000000       1.62013441      22.29121606        2       1.00000000       0.00000000       0.00000000       0.00000000
H        2.80615512       1.62013441      22.29121606        2       1.00000000       0.00000000       0.00000000       0.00000000
H        1.40307756       4.05033604      22.29121606        2       1.00000000       0.00000000       0.00000000       0.00000000
H        4.20923268       4.05033604      22.29121606        2       1.00000000       0.00000000       0.00000000       0.00000000
H        0.00000000       0.00000000      24.58243212        1       1.00000000       0.00000000       0.00000000       0.00000000
H        2.80615512       0.00000000      24.58243212        1       1.00000000       0.00000000       0.00000000       0.00000000
H        1.40307756       2.43020162      24.58243212        1       1.00000000       0.00000000       0.00000000       0.00000000
H        4.20923268       2.43020162      24.58243212        1       1.00000000       0.00000000       0.00000000       0.00000000
H        0.47337284       3.16748071      37.75050936        0       1.00000000      -1.44216126       0.64472552      -0.70625804
H        2.71879744      -0.03449887      32.25081504        0       1.00000000       0.34636811      -0.95190659      -0.53821691
H        1.94269490       1.76386144      29.20402780        0       1.00000000       1.97576761       1.02949612       0.04605941
H        2.32805580       2.18879675      33.84609360        0       1.00000000       1.11709317      -1.59253886      -0.79573437
16
Lattice="5.612310241546866 0.0 0.0 0.0 4.860403243099165 0.0 0.0 0.0 44.58243212332868" Properties=species:S:1:pos:R:3:tags:I:1:masses:R:1:momenta:R:3 KEmax=20.68159280932131 iter=699 volume=1216.1236359717223 set_wall=T ns_energy=-1.7305135103923865 last_walked_iter_clone=670 ns_P=0.0 config_n_global=699 ns_KE=6.060600632389794 pbc="T T F"
H        1.40307756       0.81006721      20.00000000        3       1.00000000       0.00000000       0.00000000       0.00000000
H        4.20923268       0.81006721      20.00000000        3       1.00000000       0.00000000       0.00000000       0.00000000
H        0.00000000       3.24026883      20.00000000        3       1.00000000       0.00000000       0.00000000       0.00000000
H        2.80615512       3.24026883      20.00000000        3       1.00000000       0.00000000       0.00000000       0.00000000
H        0.00000000       1.62013441      22.29121606        2       1.00000000       0.00000000       0.00000000       0.00000000
H        2.80615512       1.62013441      22.29121606        2       1.00000000       0.00000000       0.00000000       0.00000000
H        1.40307756       4.05033604      22.29121606        2       1.00000000       0.00000000       0.00000000       0.00000000
H        4.20923268       4.05033604      22.29121606        2       1.00000000       0.00000000       0.00000000       0.00000000
H        0.00000000       0.00000000      24.58243212        1       1.00000000       0.00000000       0.00000000       0.00000000
H        2.80615512       0.00000000      24.58243212        1       1.00000000       0.00000000       0.00000000       0.00000000
H        1.40307756       2.43020162      24.58243212        1       1.00000000       0.00000000       0.00000000       0.00000000
H        4.20923268       2.43020162      24.58243212        1       1.00000000       0.00000000       0.00000000       0.00000000
H        3.88805544       0.97178497      27.51067659        0       1.00000000      -0.05730444      -0.42613626       1.19651805
H        2.82444116       0.54000811      37.20223875        0       1.00000000       0.52017116       0.37669559       1.88498420
H        0.35022633       4.37172885      34.53036571        0       1.00000000      -0.12973518       1.15810226       2.08387118
H        4.83418428       3.83622846      31.10154886        0       1.00000000      -0.02657210      -0.02581487       0.91493345
16
Lattice="5.612310241546866 0.0 0.0 0.0 4.860403243099165 0.0 0.0 0.0 44.58243212332868" Properties=species:S:1:pos:R:3:tags:I:1:masses:R:1:momenta:R:3 KEmax=20.68159280932131 iter=799 volume=1216.1236359717223 set_wall=T ns_energy=-2.355163148917005 last_walked_iter_clone=731 ns_P=0.0 config_n_global=799 ns_KE=5.2370829064247735 pbc="T T F"
H        1.40307756       0.81006721      20.00000000        3       1.00000000       0.00000000       0.00000000       0.00000000
H        4.20923268       0.81006721      20.00000000        3       1.00000000       0.00000000       0.00000000       0.00000000
H        0.00000000       3.24026883      20.00000000        3       1.00000000       0.00000000       0.00000000       0.00000000
H        2.80615512       3.24026883      20.00000000        3       1.00000000       0.00000000       0.00000000       0.00000000
H        0.00000000       1.62013441      22.29121606        2       1.00000000       0.00000000       0.00000000       0.00000000
H        2.80615512       1.62013441      22.29121606        2       1.00000000       0.00000000       0.00000000       0.00000000
H        1.40307756       4.05033604      22.29121606        2       1.00000000       0.00000000       0.00000000       0.00000000
H        4.20923268       4.05033604      22.29121606        2       1.00000000       0.00000000       0.00000000       0.00000000
H        0.00000000       0.00000000      24.58243212        1       1.00000000       0.00000000       0.00000000       0.00000000
H        2.80615512       0.00000000      24.58243212        1       1.00000000       0.00000000       0.00000000       0.00000000
H        1.40307756       2.43020162      24.58243212        1       1.00000000       0.00000000       0.00000000       0.00000000
H        4.20923268       2.43020162      24.58243212        1       1.00000000       0.00000000       0.00000000       0.00000000
H        2.04576984       2.13860424      44.00342823        0       1.00000000       2.09329974      -0.26408104      -0.44078490
H        2.80640305       3.32713273      26.65592111        0       1.00000000       0.92513481      -2.12097469       0.17038579
H        0.69597820       4.72212561      37.98294466        0       1.00000000       0.06156594       0.26598155       0.08942428
H        4.34092171       4.69070413      27.66380346        0       1.00000000      -0.55172195      -0.03280471       0.23829814
16
Lattice="5.612310241546866 0.0 0.0 0.0 4.860403243099165 0.0 0.0 0.0 44.58243212332868" Properties=species:S:1:pos:R:3:tags:I:1:masses:R:1:momenta:R:3 KEmax=20.68159280932131 iter=899 volume=1216.1236359717223 set_wall=T ns_energy=-2.9157085073459195 last_walked_iter_clone=812 ns_P=0.0 config_n_global=899 ns_KE=4.818911049668484 pbc="T T F"
H        1.40307756       0.81006721      20.00000000        3       1.00000000       0.00000000       0.00000000       0.00000000
H        4.20923268       0.81006721      20.00000000        3       1.00000000       0.00000000       0.00000000       0.00000000
H        0.00000000       3.24026883      20.00000000        3       1.00000000       0.00000000       0.00000000       0.00000000
H        2.80615512       3.24026883      20.00000000        3       1.00000000       0.00000000       0.00000000       0.00000000
H        0.00000000       1.62013441      22.29121606        2       1.00000000       0.00000000       0.00000000       0.00000000
H        2.80615512       1.62013441      22.29121606        2       1.00000000       0.00000000       0.00000000       0.00000000
H        1.40307756       4.05033604      22.29121606        2       1.00000000       0.00000000       0.00000000       0.00000000
H        4.20923268       4.05033604      22.29121606        2       1.00000000       0.00000000       0.00000000       0.00000000
H        0.00000000       0.00000000      24.58243212        1       1.00000000       0.00000000       0.00000000       0.00000000
H        2.80615512       0.00000000      24.58243212        1       1.00000000       0.00000000       0.00000000       0.00000000
H        1.40307756       2.43020162      24.58243212        1       1.00000000       0.00000000       0.00000000       0.00000000
H        4.20923268       2.43020162      24.58243212        1       1.00000000       0.00000000       0.00000000       0.00000000
H        1.35838073       2.88106604      43.73227408        0       1.00000000       0.18344138      -0.75977589       0.77534862
H        2.56989666       0.13915179      35.88979196        0       1.00000000      -0.37886922      -0.47725306       0.14926865
H        0.99653138       2.36730044      40.91401642        0       1.00000000       0.96657154      -0.01985204      -0.92004800
H        2.33498486       3.46726859      38.55491061        0       1.00000000      -1.29988945      -1.93656768       0.90055709
16
Lattice="5.612310241546866 0.0 0.0 0.0 4.860403243099165 0.0 0.0 0.0 44.58243212332868" Properties=species:S:1:pos:R:3:tags:I:1:masses:R:1:momenta:R:3 KEmax=20.68159280932131 iter=999 volume=1216.1236359717223 set_wall=T ns_energy=-3.391295821249792 last_walked_iter_clone=970 ns_P=0.0 config_n_global=999 ns_KE=3.9382067190175976 pbc="T T F"
H        1.40307756       0.81006721      20.00000000        3       1.00000000       0.00000000       0.00000000       0.00000000
H        4.20923268       0.81006721      20.00000000        3       1.00000000       0.00000000       0.00000000       0.00000000
H        0.00000000       3.24026883      20.00000000        3       1.00000000       0.00000000       0.00000000       0.00000000
H        2.80615512       3.24026883      20.00000000        3       1.00000000       0.00000000       0.00000000       0.00000000
H        0.00000000       1.62013441      22.29121606        2       1.00000000       0.00000000       0.00000000       0.00000000
H        2.80615512       1.62013441      22.29121606        2       1.00000000       0.00000000       0.00000000       0.00000000
H        1.40307756       4.05033604      22.29121606        2       1.00000000       0.00000000       0.00000000       0.00000000
H        4.20923268       4.05033604      22.29121606        2       1.00000000       0.00000000       0.00000000       0.00000000
H        0.00000000       0.00000000      24.58243212        1       1.00000000       0.00000000       0.00000000       0.00000000
H        2.80615512       0.00000000      24.58243212        1       1.00000000       0.00000000       0.00000000       0.00000000
H        1.40307756       2.43020162      24.58243212        1       1.00000000       0.00000000       0.00000000       0.00000000
H        4.20923268       2.43020162      24.58243212        1       1.00000000       0.00000000       0.00000000       0.00000000
H        3.13412781       3.40908052      35.07234125        0       1.00000000       0.03361995       0.53838983       0.24056976
H        3.81722650       3.88406754      43.16124892        0       1.00000000       0.23394550       0.88144461      -1.81735571
H        1.57689579       0.94310521      41.52713850        0       1.00000000      -0.20469862       0.27140927      -0.40298773
H        0.21474014       0.72541479      43.39765215        0       1.00000000      -0.14221958       0.47027980      -1.69520964
16
Lattice="5.612310241546866 0.0 0.0 0.0 4.860403243099165 0.0 0.0 0.0 44.58243212332868" Properties=species:S:1:pos:R:3:tags:I:1:masses:R:1:momenta:R:3 KEmax=20.68159280932131 iter=1099 volume=1216.1236359717223 set_wall=T ns_energy=-3.744426886276423 last_walked_iter_clone=996 ns_P=0.0 config_n_global=1099 ns_KE=3.5038956035397417 pbc="T T F"
H        1.40307756       0.81006721      20.00000000        3       1.00000000       0.00000000       0.00000000       0.00000000
H        4.20923268       0.81006721      20.00000000        3       1.00000000       0.00000000       0.00000000       0.00000000
H        0.00000000       3.24026883      20.00000000        3       1.00000000       0.00000000       0.00000000       0.00000000
H        2.80615512       3.24026883      20.00000000        3       1.00000000       0.00000000       0.00000000       0.00000000
H        0.00000000       1.62013441      22.29121606        2       1.00000000       0.00000000       0.00000000       0.00000000
H        2.80615512       1.62013441      22.29121606        2       1.00000000       0.00000000       0.00000000       0.00000000
H        1.40307756       4.05033604      22.29121606        2       1.00000000       0.00000000       0.00000000       0.00000000
H        4.20923268       4.05033604      22.29121606        2       1.00000000       0.00000000       0.00000000       0.00000000
H        0.00000000       0.00000000      24.58243212        1       1.00000000       0.00000000       0.00000000       0.00000000
H        2.80615512       0.00000000      24.58243212        1       1.00000000       0.00000000       0.00000000       0.00000000
H        1.40307756       2.43020162      24.58243212        1       1.00000000       0.00000000       0.00000000       0.00000000
H        4.20923268       2.43020162      24.58243212        1       1.00000000       0.00000000       0.00000000       0.00000000
H        2.70942795       3.05895344      36.68375831        0       1.00000000       0.24631554      -1.78044043      -0.04690053
H        3.07066402       1.43287956      32.90064216        0       1.00000000       0.24702745       0.02330484      -1.15581968
H        1.15955720       3.53957054      42.55506116        0       1.00000000      -0.97200492       0.54716522      -0.72048828
H        4.01285243       0.98626546      30.77150557        0       1.00000000       0.11500803       0.43697439      -0.64031795
16
Lattice="5.612310241546866 0.0 0.0 0.0 4.860403243099165 0.0 0.0 0.0 44.58243212332868" Properties=species:S:1:pos:R:3:tags:I:1:masses:R:1:momenta:R:3 KEmax=20.68159280932131 iter=1199 volume=1216.1236359717223 set_wall=T ns_energy=-4.087469019244203 last_walked_iter_clone=1164 ns_P=0.0 config_n_global=1199 ns_KE=2.818353012322574 pbc="T T F"
H        1.40307756       0.81006721      20.00000000        3       1.00000000       0.00000000       0.00000000       0.00000000
H        4.20923268       0.81006721      20.00000000        3       1.00000000       0.00000000       0.00000000       0.00000000
H        0.00000000       3.24026883      20.00000000        3       1.00000000       0.00000000       0.00000000       0.00000000
H        2.80615512       3.24026883      20.00000000        3       1.00000000       0.00000000       0.00000000       0.00000000
H        0.00000000       1.62013441      22.29121606        2       1.00000000       0.00000000       0.00000000       0.00000000
H        2.80615512       1.62013441      22.29121606        2       1.00000000       0.00000000       0.00000000       0.00000000
H        1.40307756       4.05033604      22.29121606        2       1.00000000       0.00000000       0.00000000       0.00000000
H        4.20923268       4.05033604      22.29121606        2       1.00000000       0.00000000       0.00000000       0.00000000
H        0.00000000       0.00000000      24.58243212        1       1.00000000       0.00000000       0.00000000       0.00000000
H        2.80615512       0.00000000      24.58243212        1       1.00000000       0.00000000       0.00000000       0.00000000
H        1.40307756       2.43020162      24.58243212        1       1.00000000       0.00000000       0.00000000       0.00000000
H        4.20923268       2.43020162      24.58243212        1       1.00000000       0.00000000       0.00000000       0.00000000
H        0.77445406       1.96796688      29.97345902        0       1.00000000      -0.98972201      -0.90748006      -0.06223434
H        4.45114805       3.30523595      26.59179863        0       1.00000000       0.36033967      -0.37351481      -0.24422101
H        3.92934016       2.06687520      34.48083752        0       1.00000000       1.52177469      -0.16998713      -0.12913664
H        3.06331831       3.60450746      43.87959744        0       1.00000000      -0.77928839       0.03812484       0.72845542
16
Lattice="5.612310241546866 0.0 0.0 0.0 4.860403243099165 0.0 0.0 0.0 44.58243212332868" Properties=species:S:1:pos:R:3:tags:I:1:masses:R:1:momenta:R:3 KEmax=20.68159280932131 iter=1299 volume=1216.1236359717223 set_wall=T ns_energy=-4.3677805861771954 last_walked_iter_clone=1242 ns_P=0.0 config_n_global=1299 ns_KE=3.3584957954081895 pbc="T T F"
H        1.40307756       0.81006721      20.00000000        3       1.00000000       0.00000000       0.00000000       0.00000000
H        4.20923268       0.81006721      20.00000000        3       1.00000000       0.00000000       0.00000000       0.00000000