16
Lattice="5.612310241546866 0.0 0.0 0.0 4.860403243099165 0.0 0.0 0.0 44.58243212332868" Properties=species:S:1:pos:R:3:tags:I:1:masses:R:1:momenta:R:3:forces:R:3 KEmax=20.68159280932131 iter=85755 volume=1216.1236359717223 set_wall=T ns_energy=-10.497523026385505 last_walked_iter_clone=85494 energy=-10.49752302638896 stress="0.026614504606432072 -4.069258549659133e-09 8.182059928666961e-09 -4.069258549659133e-09 0.02661450664803548 1.944607453552504e-09 8.182059928666961e-09 1.944607453552504e-09 0.015081985889066818" pbc="T T F"
H        1.40307756       0.81006721      20.00000000        3       1.00000000       0.00000000       0.00000000       0.00000000       0.00000000       0.00000000       0.00000000
H        4.20923268       0.81006721      20.00000000        3       1.00000000       0.00000000       0.00000000       0.00000000       0.00000000       0.00000000       0.00000000
H        0.00000000       3.24026883      20.00000000        3       1.00000000       0.00000000       0.00000000       0.00000000       0.00000000       0.00000000       0.00000000
H        2.80615512       3.24026883      20.00000000        3       1.00000000       0.00000000       0.00000000       0.00000000       0.00000000       0.00000000       0.00000000
H        0.00000000       1.62013441      22.29121606        2       1.00000000       0.00000000       0.00000000       0.00000000       0.00000000       0.00000000       0.00000000
H        2.80615512       1.62013441      22.29121606        2       1.00000000       0.00000000       0.00000000       0.00000000       0.00000000       0.00000000       0.00000000
H        1.40307756       4.05033604      22.29121606        2       1.00000000       0.00000000       0.00000000       0.00000000       0.00000000       0.00000000       0.00000000
H        4.20923268       4.05033604      22.29121606        2       1.00000000       0.00000000       0.00000000       0.00000000       0.00000000       0.00000000       0.00000000
H        0.00000000       0.00000000      24.58243212        1       1.00000000       0.00000000       0.00000000       0.00000000       0.00000000       0.00000000       0.00000000
H        2.80615512       0.00000000      24.58243212        1       1.00000000       0.00000000       0.00000000       0.00000000       0.00000000       0.00000000       0.00000000
H        1.40307756       2.43020162      24.58243212        1       1.00000000       0.00000000       0.00000000       0.00000000       0.00000000       0.00000000       0.00000000
H        4.20923268       2.43020162      24.58243212        1       1.00000000       0.00000000       0.00000000       0.00000000       0.00000000       0.00000000       0.00000000
H        5.61231011       1.62013393      26.81106472        0       1.00000000      -0.00000051      -0.00000063       0.00000106      -0.00000079       0.00000132       0.00000187
H        4.20923184       4.05033627      26.81106515        0       1.00000000      -0.00000015      -0.00000130      -0.00000077      -0.00000083      -0.00000329       0.00000214
H        2.80615535       1.62013362      26.81106478        0       1.00000000       0.00000091      -0.00000077       0.00000145       0.00000001       0.00000080       0.00000098
H        1.40307680       4.05033572      26.81106591        0       1.00000000      -0.00000018       0.00000022      -0.00000084       0.00000093       0.00000100      -0.00000197
16
Lattice="5.612310241546866 0.0 0.0 0.0 4.860403243099165 0.0 0.0 0.0 44.58243212332868" Properties=species:S:1:pos:R:3:tags:I:1:masses:R:1:momenta:R:3:forces:R:3 KEmax=20.68159280932131 iter=85755 volume=1216.1236359717223 set_wall=T ns_energy=-10.497523026385386 last_walked_iter_clone=85613 energy=-10.49752302638896 stress="0.026614504606432072 -4.069258549659133e-09 8.182059928666961e-09 -4.069258549659133e-09 0.02661450664803548 1.944607453552504e-09 8.182059928666961e-09 1.944607453552504e-09 0.015081985889066818" pbc="T T F"
H        1.40307756       0.81006721      20.00000000        3       1.00000000       0.00000000       0.00000000       0.00000000       0.00000000       0.00000000       0.00000000
H        4.20923268       0.81006721      20.00000000        3       1.00000000       0.00000000       0.00000000       0.00000000       0.00000000       0.00000000       0.00000000
H        0.00000000       3.24026883      20.00000000        3       1.00000000       0.00000000       0.00000000       0.00000000       0.00000000       0.00000000       0.00000000
H        2.80615512       3.24026883      20.00000000        3       1.00000000       0.00000000       0.00000000       0.00000000       0.00000000       0.00000000       0.00000000
H        0.00000000       1.62013441      22.29121606        2       1.00000000       0.00000000       0.00000000       0.00000000       0.00000000       0.00000000       0.00000000
H        2.80615512       1.62013441      22.29121606        2       1.00000000       0.00000000       0.00000000       0.00000000       0.00000000       0.00000000       0.00000000
H        1.40307756       4.05033604      22.29121606        2       1.00000000       0.00000000       0.00000000       0.00000000       0.00000000       0.00000000       0.00000000
H        4.20923268       4.05033604      22.29121606        2       1.00000000       0.00000000       0.00000000       0.00000000       0.00000000       0.00000000       0.00000000
H        0.00000000       0.00000000      24.58243212        1       1.00000000       0.00000000       0.00000000       0.00000000       0.00000000       0.00000000       0.00000000
H        2.80615512       0.00000000      24.58243212        1       1.00000000       0.00000000       0.00000000       0.00000000       0.00000000       0.00000000       0.00000000
H        1.40307756       2.43020162      24.58243212        1       1.00000000       0.00000000       0.00000000       0.00000000       0.00000000       0.00000000       0.00000000
H        4.20923268       2.43020162      24.58243212        1       1.00000000       0.00000000       0.00000000       0.00000000       0.00000000       0.00000000       0.00000000
H        5.61231048       1.62013409      26.81106461        0       1.00000000       0.00000083      -0.00000181      -0.00000067      -0.00000079       0.00000132       0.00000187
H        4.20923285       4.05033543      26.81106511        0       1.00000000      -0.00000051       0.00000072       0.00000104      -0.00000083      -0.00000329       0.00000214
H        2.80615593       1.62013375      26.81106467        0       1.00000000       0.00000134      -0.00000013      -0.00000221       0.00000001       0.00000080       0.00000098
H        1.40307780       4.05033576      26.81106543        0       1.00000000      -0.00000004      -0.00000020       0.00000024       0.00000093       0.00000100      -0.00000197
16
Lattice="5.612310241546866 0.0 0.0 0.0 4.860403243099165 0.0 0.0 0.0 44.58243212332868" Properties=species:S:1:pos:R:3:tags:I:1:masses:R:1:momenta:R:3:forces:R:3 KEmax=20.68159280932131 iter=85755 volume=1216.1236359717223 set_wall=T ns_energy=-10.497523026385323 last_walked_iter_clone=85664 energy=-10.49752302638896 stress="0.026614504606432072 -4.069258549659133e-09 8.182059928666961e-09 -4.069258549659133e-09 0.02661450664803548 1.944607453552504e-09 8.182059928666961e-09 1.944607453552504e-09 0.015081985889066818" pbc="T T F"
H        1.40307756       0.81006721      20.00000000        3       1.00000000       0.00000000       0.00000000       0.00000000       0.00000000       0.00000000       0.00000000
H        4.20923268       0.81006721      20.00000000        3       1.00000000       0.00000000       0.00000000       0.00000000       0.00000000       0.00000000       0.00000000
H        0.00000000       3.24026883      20.00000000        3       1.00000000       0.00000000       0.00000000       0.00000000       0.00000000       0.00000000       0.00000000
H        2.80615512       3.24026883      20.00000000        3       1.00000000       0.00000000       0.00000000       0.00000000       0.00000000       0.00000000       0.00000000
H        0.00000000       1.62013441      22.29121606        2       1.00000000       0.00000000       0.00000000       0.00000000       0.00000000       0.00000000       0.00000000
H        2.80615512       1.62013441      22.29121606        2       1.00000000       0.00000000       0.00000000       0.00000000       0.00000000       0.00000000       0.00000000
H        1.40307756       4.05033604      22.29121606        2       1.00000000       0.00000000       0.00000000       0.00000000       0.00000000       0.00000000       0.00000000
H        4.20923268       4.05033604      22.29121606        2       1.00000000       0.00000000       0.00000000       0.00000000       0.00000000       0.00000000       0.00000000
H        0.00000000       0.00000000      24.58243212        1       1.00000000       0.00000000       0.00000000       0.00000000       0.00000000       0.00000000       0.00000000
H        2.80615512       0.00000000      24.58243212        1       1.00000000       0.00000000       0.00000000       0.00000000       0.00000000       0.00000000       0.00000000
H        1.40307756       2.43020162      24.58243212        1       1.00000000       0.00000000       0.00000000       0.00000000       0.00000000       0.00000000       0.00000000
H        4.20923268       2.43020162      24.58243212        1       1.00000000       0.00000000       0.00000000       0.00000000       0.00000000       0.00000000       0.00000000
H       -0.00000008       1.62013403      26.81106519        0       1.00000000      -0.00000108      -0.00000106      -0.00000071      -0.00000079       0.00000132       0.00000187
H        4.20923288       4.05033628      26.81106533        0       1.00000000      -0.00000111      -0.00000047      -0.00000021      -0.00000083      -0.00000329       0.00000214
H        2.80615551       1.62013453      26.81106431        0       1.00000000       0.00000020       0.00000069      -0.00000095       0.00000001       0.00000080       0.00000098
H        1.40307760       4.05033647      26.81106440        0       1.00000000       0.00000156      -0.00000128      -0.00000090       0.00000093       0.00000100      -0.00000197
16
Lattice="5.612310241546866 0.0 0.0 0.0 4.860403243099165 0.0 0.0 0.0 44.58243212332868" Properties=species:S:1:pos:R:3:tags:I:1:masses:R:1:momenta:R:3:forces:R:3 KEmax=20.68159280932131 iter=85755 volume=1216.1236359717223 set_wall=T ns_energy=-10.4975230263856 last_walked_iter_clone=85457 energy=-10.49752302638896 stress="0.026614504606432072 -4.069258549659133e-09 8.182059928666961e-09 -4.069258549659133e-09 0.02661450664803548 1.944607453552504e-09 8.182059928666961e-09 1.944607453552504e-09 0.015081985889066818" pbc="T T F"
H        1.40307756       0.81006721      20.00000000        3       1.00000000       0.00000000       0.00000000       0.00000000       0.00000000       0.00000000       0.00000000
H        4.20923268       0.81006721      20.00000000        3       1.00000000       0.00000000       0.00000000       0.00000000       0.00000000       0.00000000       0.00000000
H        0.00000000       3.24026883      20.00000000        3       1.00000000       0.00000000       0.00000000       0.00000000       0.00000000       0.00000000       0.00000000
H        2.80615512       3.24026883      20.00000000        3       1.00000000       0.00000000       0.00000000       0.00000000       0.00000000       0.00000000       0.00000000
H        0.00000000       1.62013441      22.29121606        2       1.00000000       0.00000000       0.00000000       0.00000000       0.00000000       0.00000000       0.00000000
H        2.80615512       1.62013441      22.29121606        2       1.00000000       0.00000000       0.00000000       0.00000000       0.00000000       0.00000000       0.00000000
H        1.40307756       4.05033604      22.29121606        2       1.00000000       0.00000000       0.00000000       0.00000000       0.00000000       0.00000000       0.00000000
H        4.20923268       4.05033604      22.29121606        2       1.00000000       0.00000000       0.00000000       0.00000000       0.00000000       0.00000000       0.00000000
H        0.00000000       0.00000000      24.58243212        1       1.00000000       0.00000000       0.00000000       0.00000000       0.00000000       0.00000000       0.00000000
H        2.80615512       0.00000000      24.58243212        1       1.00000000       0.00000000       0.00000000       0.00000000       0.00000000       0.00000000       0.00000000
H        1.40307756       2.43020162      24.58243212        1       1.00000000       0.00000000       0.00000000       0.00000000       0.00000000       0.00000000       0.00000000
H        4.20923268       2.43020162      24.58243212        1       1.00000000       0.00000000       0.00000000       0.00000000       0.00000000       0.00000000       0.00000000
H        0.00000013       1.62013474      26.81106488        0       1.00000000      -0.00000005      -0.00000018      -0.00000110      -0.00000079       0.00000132       0.00000187
H        4.20923311       4.05033711      26.81106547        0       1.00000000      -0.00000047       0.00000216      -0.00000036      -0.00000083      -0.00000329       0.00000214
H        2.80615544       1.62013442      26.81106467        0       1.00000000      -0.00000062      -0.00000083       0.00000114       0.00000001       0.00000080       0.00000098
H        1.40307741       4.05033634      26.81106545        0       1.00000000       0.00000041      -0.00000121       0.00000048       0.00000093       0.00000100      -0.00000197
16
Lattice="5.612310241546866 0.0 0.0 0.0 4.860403243099165 0.0 0.0 0.0 44.58243212332868" Properties=species:S:1:pos:R:3:tags:I:1:masses:R:1:momenta:R:3:forces:R:3 KEmax=20.68159280932131 iter=85755 volume=1216.1236359717223 set_wall=T ns_energy=-10.497523026385691 last_walked_iter_clone=85114 energy=-10.49752302638896 stress="0.026614504606432072 -4.069258549659133e-09 8.182059928666961e-09 -4.069258549659133e-09 0.02661450664803548 1.944607453552504e-09 8.182059928666961e-09 1.944607453552504e-09 0.015081985889066818" pbc="T T F"
H        1.40307756       0.81006721      20.00000000        3       1.00000000       0.00000000       0.00000000       0.00000000       0.00000000       0.00000000       0.00000000
H        4.20923268       0.81006721      20.00000000        3       1.00000000       0.00000000       0.00000000       0.00000000       0.00000000       0.00000000       0.00000000
H        0.00000000       3.24026883      20.00000000        3       1.00000000       0.00000000       0.00000000       0.00000000       0.00000000       0.00000000       0.00000000
H        2.80615512       3.24026883      20.00000000        3       1.00000000       0.00000000       0.00000000       0.00000000       0.00000000       0.00000000       0.00000000
H        0.00000000       1.62013441      22.29121606        2       1.00000000       0.00000000       0.00000000       0.00000000       0.00000000       0.00000000       0.00000000
H        2.80615512       1.62013441      22.29121606        2       1.00000000       0.00000000       0.00000000       0.00000000       0.00000000       0.00000000       0.00000000
H        1.40307756       4.05033604      22.29121606        2       1.00000000       0.00000000       0.00000000       0.00000000       0.00000000       0.00000000       0.00000000
H        4.20923268       4.05033604      22.29121606        2       1.00000000       0.00000000       0.00000000       0.00000000       0.00000000       0.00000000       0.00000000
H        0.00000000       0.00000000      24.58243212        1       1.00000000       0.00000000       0.00000000       0.00000000       0.00000000       0.00000000       0.00000000
H        2.80615512       0.00000000      24.58243212        1       1.00000000       0.00000000       0.00000000       0.00000000       0.00000000       0.00000000       0.00000000
H        1.40307756       2.43020162      24.58243212        1       1.00000000       0.00000000       0.00000000       0.00000000       0.00000000       0.00000000       0.00000000
H        4.20923268       2.43020162      24.58243212        1       1.00000000       0.00000000       0.00000000       0.00000000       0.00000000       0.00000000       0.00000000
H       -0.00000051       1.62013393      26.81106503        0       1.00000000       0.00000080       0.00000035      -0.00000146      -0.00000079       0.00000132       0.00000187
H        4.20923247       4.05033616      26.81106461        0       1.00000000       0.00000140       0.00000228      -0.00000087      -0.00000083      -0.00000329       0.00000214
H        2.80615438       1.62013430      26.81106483        0       1.00000000       0.00000076      -0.00000012       0.00000015       0.00000001       0.00000080       0.00000098
H        1.40307715       4.05033574      26.81106536        0       1.00000000      -0.00000055       0.00000066       0.00000096       0.00000093       0.00000100      -0.00000197
16
Lattice="5.612310241546866 0.0 0.0 0.0 4.860403243099165 0.0 0.0 0.0 44.58243212332868" Properties=species:S:1:pos:R:3:tags:I:1:masses:R:1:momenta:R:3:forces:R:3 KEmax=20.68159280932131 iter=85755 volume=1216.1236359717223 set_wall=T ns_energy=-10.497523026385394 last_walked_iter_clone=85531 energy=-10.49752302638896 stress="0.026614504606432072 -4.069258549659133e-09 8.182059928666961e-09 -4.069258549659133e-09 0.02661450664803548 1.944607453552504e-09 8.182059928666961e-09 1.944607453552504e-09 0.015081985889066818" pbc="T T F"
H        1.40307756       0.81006721      20.00000000        3       1.00000000       0.00000000       0.00000000       0.00000000       0.00000000       0.00000000       0.00000000
H        4.20923268       0.81006721      20.00000000        3       1.00000000       0.00000000       0.00000000       0.00000000       0.00000000       0.00000000       0.00000000
H        0.00000000       3.24026883      20.00000000        3       1.00000000       0.00000000       0.00000000       0.00000000       0.00000000       0.00000000       0.00000000
H        2.80615512       3.24026883      20.00000000        3       1.00000000       0.00000000       0.00000000       0.00000000       0.00000000       0.00000000       0.00000000
H        0.00000000       1.62013441      22.29121606        2       1.00000000       0.00000000       0.00000000       0.00000000       0.00000000       0.00000000       0.00000000
H        2.80615512       1.62013441      22.29121606        2       1.00000000       0.00000000       0.00000000       0.00000000       0.00000000       0.00000000       0.00000000
H        1.40307756       4.05033604      22.29121606        2       1.00000000       0.00000000       0.00000000       0.00000000       0.00000000       0.00000000       0.00000000
H        4.20923268       4.05033604      22.29121606        2       1.00000000       0.00000000       0.00000000       0.00000000       0.00000000       0.00000000       0.00000000
H        0.00000000       0.00000000      24.58243212        1       1.00000000       0.00000000       0.00000000       0.00000000       0.00000000       0.00000000       0.00000000
H        2.80615512       0.00000000      24.58243212        1       1.00000000       0.00000000       0.00000000       0.00000000       0.00000000       0.00000000       0.00000000
H        1.40307756       2.43020162      24.58243212        1       1.00000000       0.00000000       0.00000000       0.00000000       0.00000000       0.00000000       0.00000000
H        4.20923268       2.43020162      24.58243212        1       1.00000000       0.00000000       0.00000000       0.00000000       0.00000000       0.00000000       0.00000000
H       -0.00000044       1.62013477      26.81106514        0       1.00000000      -0.00000014      -0.00000059       0.00000028      -0.00000079       0.00000132       0.00000187
H        4.20923289       4.05033677      26.81106493        0       1.00000000      -0.00000005      -0.00000182      -0.00000007      -0.00000083      -0.00000329       0.00000214
H        2.80615483       1.62013501      26.81106475        0       1.00000000      -0.00000096      -0.00000055       0.00000020       0.00000001       0.00000080       0.00000098
H        1.40307747       4.05033663      26.81106670        0       1.00000000      -0.00000033       0.00000054      -0.00000121       0.00000093       0.00000100      -0.00000197
16
Lattice="5.612310241546866 0.0 0.0 0.0 4.860403243099165 0.0 0.0 0.0 44.58243212332868" Properties=species:S:1:pos:R:3:tags:I:1:masses:R:1:momenta:R:3:forces:R:3 KEmax=20.68159280932131 iter=85755 volume=1216.1236359717223 set_wall=T ns_energy=-10.49752302638544 last_walked_iter_clone=85403 energy=-10.49752302638896 stress="0.026614504606432072 -4.069258549659133e-09 8.182059928666961e-09 -4.069258549659133e-09 0.02661450664803548 1.944607453552504e-09 8.182059928666961e-09 1.944607453552504e-09 0.015081985889066818" pbc="T T F"
H        1.40307756       0.81006721      20.00000000        3       1.00000000       0.00000000       0.00000000       0.00000000       0.00000000       0.00000000       0.00000000
H        4.20923268       0.81006721      20.00000000        3       1.00000000       0.00000000       0.00000000       0.00000000       0.00000000       0.00000000       0.00000000
H        0.00000000       3.24026883      20.00000000        3       1.00000000       0.00000000       0.00000000       0.00000000       0.00000000       0.00000000       0.00000000
H        2.80615512       3.24026883      20.00000000        3       1.00000000       0.00000000       0.00000000       0.00000000       0.00000000       0.00000000       0.00000000
H        0.00000000       1.62013441      22.29121606        2       1.00000000       0.00000000       0.00000000       0.00000000       0.00000000       0.00000000       0.00000000
H        2.80615512       1.62013441      22.29121606        2       1.00000000       0.00000000       0.00000000       0.00000000       0.00000000       0.00000000       0.00000000
H        1.40307756       4.05033604      22.29121606        2       1.00000000       0.00000000       0.00000000       0.00000000       0.00000000       0.00000000       0.00000000
H        4.20923268       4.05033604      22.29121606        2       1.00000000       0.00000000       0.00000000       0.00000000       0.00000000       0.00000000       0.00000000
H        0.00000000       0.00000000      24.58243212        1       1.00000000       0.00000000       0.00000000       0.00000000       0.00000000       0.00000000       0.00000000
H        2.80615512       0.00000000      24.58243212        1       1.00000000       0.00000000       0.00000000       0.00000000       0.00000000       0.00000000       0.00000000
H        1.40307756       2.43020162      24.58243212        1       1.00000000       0.00000000       0.00000000       0.00000000       0.00000000       0.00000000       0.00000000
H        4.20923268       2.43020162      24.58243212        1       1.00000000       0.00000000       0.00000000       0.00000000       0.00000000       0.00000000       0.00000000
H       -0.00000009       1.62013388      26.81106455        0       1.00000000      -0.00000131      -0.00000093      -0.00000123      -0.00000079       0.00000132       0.00000187
H        4.20923287       4.05033643      26.81106520        0       1.00000000       0.00000025      -0.00000095       0.00000016      -0.00000083      -0.00000329       0.00000214
H        2.80615502       1.62013476      26.81106506        0       1.00000000      -0.00000058       0.00000227       0.00000118       0.00000001       0.00000080       0.00000098
H        1.40307728       4.05033628      26.81106483        0       1.00000000      -0.00000031       0.00000086       0.00000010       0.00000093       0.00000100      -0.00000197
16
Lattice="5.612310241546866 0.0 0.0 0.0 4.860403243099165 0.0 0.0 0.0 44.58243212332868" Properties=species:S:1:pos:R:3:tags:I:1:masses:R:1:momenta:R:3:forces:R:3 KEmax=20.68159280932131 iter=85755 volume=1216.1236359717223 set_wall=T ns_energy=-10.497523026385377 last_walked_iter_clone=85680 energy=-10.49752302638896 stress="0.026614504606432072 -4.069258549659133e-09 8.182059928666961e-09 -4.069258549659133e-09 0.02661450664803548 1.944607453552504e-09 8.182059928666961e-09 1.944607453552504e-09 0.015081985889066818" pbc="T T F"
H        1.40307756       0.81006721      20.00000000        3       1.00000000       0.00000000       0.00000000       0.00000000       0.00000000       0.00000000       0.00000000
H        4.20923268       0.81006721      20.00000000        3       1.00000000       0.00000000       0.00000000       0.00000000       0.00000000       0.00000000       0.00000000
H        0.00000000       3.24026883      20.00000000        3       1.00000000       0.00000000       0.00000000       0.00000000       0.00000000       0.00000000       0.00000000
H        2.80615512       3.24026883      20.00000000        3       1.00000000       0.00000000       0.00000000       0.00000000       0.00000000       0.00000000       0.00000000
H        0.00000000       1.62013441      22.29121606        2       1.00000000       0.00000000       0.00000000       0.00000000       0.00000000       0.00000000       0.00000000
H        2.80615512       1.62013441      22.29121606        2       1.00000000       0.00000000       0.00000000       0.00000000       0.00000000       0.00000000       0.00000000
H        1.40307756       4.05033604      22.29121606        2       1.00000000       0.00000000       0.00000000       0.00000000       0.00000000       0.00000000       0.00000000
H        4.20923268       4.05033604      22.29121606        2       1.00000000       0.00000000       0.00000000       0.00000000       0.00000000       0.00000000       0.00000000
H        0.00000000       0.00000000      24.58243212        1       1.00000000       0.00000000       0.00000000       0.00000000       0.00000000       0.00000000       0.00000000
H        2.80615512       0.00000000      24.58243212        1       1.00000000       0.00000000       0.00000000       0.00000000       0.00000000       0.00000000       0.00000000
H        1.40307756       2.43020162      24.58243212        1       1.00000000       0.00000000       0.00000000       0.00000000       0.00000000       0.00000000       0.00000000
H        4.20923268       2.43020162      24.58243212        1       1.00000000       0.00000000       0.00000000       0.00000000       0.00000000       0.00000000       0.00000000
H       -0.00000074       1.62013437      26.81106550        0       1.00000000      -0.00000097      -0.00000008       0.00000007      -0.00000079       0.00000132       0.00000187
H        4.20923175       4.05033619      26.81106564        0       1.00000000       0.00000078      -0.00000166       0.00000088      -0.00000083      -0.00000329       0.00000214
H        2.80615407       1.62013473      26.81106401        0       1.00000000      -0.00000043       0.00000112       0.00000116       0.00000001       0.00000080       0.00000098
H        1.40307702       4.05033591      26.81106524        0       1.00000000       0.00000079       0.00000034      -0.00000072       0.00000093       0.00000100      -0.00000197
16
Lattice="5.612310241546866 0.0 0.0 0.0 4.860403243099165 0.0 0.0 0.0 44.58243212332868" Properties=species:S:1:pos:R:3:tags:I:1:masses:R:1:momenta:R:3:forces:R:3 KEmax=20.68159280932131 iter=85755 volume=1216.1236359717223 set_wall=T ns_energy=-10.497523026385318 last_walked_iter_clone=85460 energy=-10.49752302638896 stress="0.026614504606432072 -4.069258549659133e-09 8.182059928666961e-09 -4.069258549659133e-09 0.02661450664803548 1.944607453552504e-09 8.182059928666961e-09 1.944607453552504e-09 0.015081985889066818" pbc="T T F"
H        1.40307756       0.81006721      20.00000000        3       1.00000000       0.00000000       0.00000000       0.00000000       0.00000000       0.00000000       0.00000000
H        4.20923268       0.81006721      20.00000000        3       1.00000000       0.00000000       0.00000000       0.00000000       0.00000000       0.00000000       0.00000000
H        0.00000000       3.24026883      20.00000000        3       1.00000000       0.00000000       0.00000000       0.00000000       0.00000000       0.00000000       0.00000000
H        2.80615512       3.24026883      20.00000000        3       1.00000000       0.00000000       0.00000000       0.00000000       0.00000000       0.00000000       0.00000000
H        0.00000000       1.62013441      22.29121606        2       1.00000000       0.00000000       0.00000000       0.00000000       0.00000000       0.00000000       0.00000000
H        2.80615512       1.62013441      22.29121606        2       1.00000000       0.00000000       0.00000000       0.00000000       0.00000000       0.00000000       0.00000000
H        1.40307756       4.05033604      22.29121606        2       1.00000000       0.00000000       0.00000000       0.00000000       0.00000000       0.00000000       0.00000000
H        4.20923268       4.05033604      22.29121606        2       1.00000000       0.00000000       0.00000000       0.00000000       0.00000000       0.00000000       0.00000000
H        0.00000000       0.00000000      24.58243212        1       1.00000000       0.00000000       0.00000000       0.00000000       0.00000000       0.00000000       0.00000000
H        2.80615512       0.00000000      24.58243212        1       1.00000000       0.00000000       0.00000000       0.00000000       0.00000000       0.00000000       0.00000000