16
Lattice="5.612310241546866 0.0 0.0 0.0 4.860403243099165 0.0 0.0 0.0 44.58243212332868" Properties=species:S:1:pos:R:3:tags:I:1:masses:R:1:momenta:R:3:forces:R:3 KEmax=20.68159280932131 iter=43469 volume=1216.1236359717223 set_wall=T ns_energy=-10.497521861214757 last_walked_iter_clone=43465 energy=-10.497522232380636 stress="0.02661729475069361 2.4755633039407385e-06 -4.9861677485592045e-06 2.4755633039407385e-06 0.02661559664590803 -1.7302741380701114e-06 -4.9861677485592045e-06 -1.7302741380701114e-06 0.015092517952451081" pbc="T T F"
H        1.40307756       0.81006721      20.00000000        3       1.00000000       0.00000000       0.00000000       0.00000000       0.00000000       0.00000000       0.00000000
H        4.20923268       0.81006721      20.00000000        3       1.00000000       0.00000000       0.00000000       0.00000000       0.00000000       0.00000000       0.00000000
H        0.00000000       3.24026883      20.00000000        3       1.00000000       0.00000000       0.00000000       0.00000000       0.00000000       0.00000000       0.00000000
H        2.80615512       3.24026883      20.00000000        3       1.00000000       0.00000000       0.00000000       0.00000000       0.00000000       0.00000000       0.00000000
H        0.00000000       1.62013441      22.29121606        2       1.00000000       0.00000000       0.00000000       0.00000000       0.00000000       0.00000000       0.00000000
H        2.80615512       1.62013441      22.29121606        2       1.00000000       0.00000000       0.00000000       0.00000000       0.00000000       0.00000000       0.00000000
H        1.40307756       4.05033604      22.29121606        2       1.00000000       0.00000000       0.00000000       0.00000000       0.00000000       0.00000000       0.00000000
H        4.20923268       4.05033604      22.29121606        2       1.00000000       0.00000000       0.00000000       0.00000000       0.00000000       0.00000000       0.00000000
H        0.00000000       0.00000000      24.58243212        1       1.00000000       0.00000000       0.00000000       0.00000000       0.00000000       0.00000000       0.00000000
H        2.80615512       0.00000000      24.58243212        1       1.00000000       0.00000000       0.00000000       0.00000000       0.00000000       0.00000000       0.00000000
H        1.40307756       2.43020162      24.58243212        1       1.00000000       0.00000000       0.00000000       0.00000000       0.00000000       0.00000000       0.00000000
H        4.20923268       2.43020162      24.58243212        1       1.00000000       0.00000000       0.00000000       0.00000000       0.00000000       0.00000000       0.00000000
H        5.61231854       1.62023290      26.81115969        0       1.00000000       0.00048269       0.00022867      -0.00043068      -0.00149605      -0.00064504      -0.00024808
H        4.20903918       4.05044273      26.81113607        0       1.00000000      -0.00021111       0.00004771      -0.00016721       0.00049821       0.00028886       0.00041168
H        2.80583181       1.61996456      26.81068481        0       1.00000000      -0.00006582       0.00004712       0.00040438       0.00148796       0.00056168      -0.00047979
H        1.40255616       4.05046736      26.81097225        0       1.00000000      -0.00027774      -0.00018124      -0.00014230      -0.00007494      -0.00006142      -0.00060850
16
Lattice="5.612310241546866 0.0 0.0 0.0 4.860403243099165 0.0 0.0 0.0 44.58243212332868" Properties=species:S:1:pos:R:3:tags:I:1:masses:R:1:momenta:R:3:forces:R:3 KEmax=20.68159280932131 iter=43469 volume=1216.1236359717223 set_wall=T ns_energy=-10.497521855091914 last_walked_iter_clone=43417 energy=-10.497522232380636 stress="0.02661729475069361 2.4755633039407385e-06 -4.9861677485592045e-06 2.4755633039407385e-06 0.02661559664590803 -1.7302741380701114e-06 -4.9861677485592045e-06 -1.7302741380701114e-06 0.015092517952451081" pbc="T T F"
H        1.40307756       0.81006721      20.00000000        3       1.00000000       0.00000000       0.00000000       0.00000000       0.00000000       0.00000000       0.00000000
H        4.20923268       0.81006721      20.00000000        3       1.00000000       0.00000000       0.00000000       0.00000000       0.00000000       0.00000000       0.00000000
H        0.00000000       3.24026883      20.00000000        3       1.00000000       0.00000000       0.00000000       0.00000000       0.00000000       0.00000000       0.00000000
H        2.80615512       3.24026883      20.00000000        3       1.00000000       0.00000000       0.00000000       0.00000000       0.00000000       0.00000000       0.00000000
H        0.00000000       1.62013441      22.29121606        2       1.00000000       0.00000000       0.00000000       0.00000000       0.00000000       0.00000000       0.00000000
H        2.80615512       1.62013441      22.29121606        2       1.00000000       0.00000000       0.00000000       0.00000000       0.00000000       0.00000000       0.00000000
H        1.40307756       4.05033604      22.29121606        2       1.00000000       0.00000000       0.00000000       0.00000000       0.00000000       0.00000000       0.00000000
H        4.20923268       4.05033604      22.29121606        2       1.00000000       0.00000000       0.00000000       0.00000000       0.00000000       0.00000000       0.00000000
H        0.00000000       0.00000000      24.58243212        1       1.00000000       0.00000000       0.00000000       0.00000000       0.00000000       0.00000000       0.00000000
H        2.80615512       0.00000000      24.58243212        1       1.00000000       0.00000000       0.00000000       0.00000000       0.00000000       0.00000000       0.00000000
H        1.40307756       2.43020162      24.58243212        1       1.00000000       0.00000000       0.00000000       0.00000000       0.00000000       0.00000000       0.00000000
H        4.20923268       2.43020162      24.58243212        1       1.00000000       0.00000000       0.00000000       0.00000000       0.00000000       0.00000000       0.00000000
H        5.61243084       1.62031554      26.81112872        0       1.00000000       0.00002279       0.00022880      -0.00046529      -0.00149605      -0.00064504      -0.00024808
H        4.20887815       4.05029524      26.81110477        0       1.00000000       0.00016998      -0.00073280      -0.00004410       0.00049821       0.00028886       0.00041168
H        2.80600050       1.62033314      26.81083241        0       1.00000000      -0.00043748      -0.00021099      -0.00016366       0.00148796       0.00056168      -0.00047979
H        1.40266551       4.05028601      26.81092643        0       1.00000000       0.00025560       0.00012298      -0.00011332      -0.00007494      -0.00006142      -0.00060850
16
Lattice="5.612310241546866 0.0 0.0 0.0 4.860403243099165 0.0 0.0 0.0 44.58243212332868" Properties=species:S:1:pos:R:3:tags:I:1:masses:R:1:momenta:R:3:forces:R:3 KEmax=20.68159280932131 iter=43469 volume=1216.1236359717223 set_wall=T ns_energy=-10.497521883314123 last_walked_iter_clone=43444 energy=-10.497522232380636 stress="0.02661729475069361 2.4755633039407385e-06 -4.9861677485592045e-06 2.4755633039407385e-06 0.02661559664590803 -1.7302741380701114e-06 -4.9861677485592045e-06 -1.7302741380701114e-06 0.015092517952451081" pbc="T T F"
H        1.40307756       0.81006721      20.00000000        3       1.00000000       0.00000000       0.00000000       0.00000000       0.00000000       0.00000000       0.00000000
H        4.20923268       0.81006721      20.00000000        3       1.00000000       0.00000000       0.00000000       0.00000000       0.00000000       0.00000000       0.00000000
H        0.00000000       3.24026883      20.00000000        3       1.00000000       0.00000000       0.00000000       0.00000000       0.00000000       0.00000000       0.00000000
H        2.80615512       3.24026883      20.00000000        3       1.00000000       0.00000000       0.00000000       0.00000000       0.00000000       0.00000000       0.00000000
H        0.00000000       1.62013441      22.29121606        2       1.00000000       0.00000000       0.00000000       0.00000000       0.00000000       0.00000000       0.00000000
H        2.80615512       1.62013441      22.29121606        2       1.00000000       0.00000000       0.00000000       0.00000000       0.00000000       0.00000000       0.00000000
H        1.40307756       4.05033604      22.29121606        2       1.00000000       0.00000000       0.00000000       0.00000000       0.00000000       0.00000000       0.00000000
H        4.20923268       4.05033604      22.29121606        2       1.00000000       0.00000000       0.00000000       0.00000000       0.00000000       0.00000000       0.00000000
H        0.00000000       0.00000000      24.58243212        1       1.00000000       0.00000000       0.00000000       0.00000000       0.00000000       0.00000000       0.00000000
H        2.80615512       0.00000000      24.58243212        1       1.00000000       0.00000000       0.00000000       0.00000000       0.00000000       0.00000000       0.00000000
H        1.40307756       2.43020162      24.58243212        1       1.00000000       0.00000000       0.00000000       0.00000000       0.00000000       0.00000000       0.00000000
H        4.20923268       2.43020162      24.58243212        1       1.00000000       0.00000000       0.00000000       0.00000000       0.00000000       0.00000000       0.00000000
H       -0.00034420       1.62017786      26.81107603        0       1.00000000      -0.00019787      -0.00045147       0.00016405      -0.00149605      -0.00064504      -0.00024808
H        4.20898994       4.05043824      26.81122514        0       1.00000000       0.00003549      -0.00038131       0.00010238       0.00049821       0.00028886       0.00041168
H        2.80593603       1.61996565      26.81119033        0       1.00000000      -0.00017616       0.00049330       0.00032174       0.00148796       0.00056168      -0.00047979
H        1.40307238       4.05054900      26.81111128        0       1.00000000       0.00059676       0.00053545      -0.00004438      -0.00007494      -0.00006142      -0.00060850
16
Lattice="5.612310241546866 0.0 0.0 0.0 4.860403243099165 0.0 0.0 0.0 44.58243212332868" Properties=species:S:1:pos:R:3:tags:I:1:masses:R:1:momenta:R:3:forces:R:3 KEmax=20.68159280932131 iter=43469 volume=1216.1236359717223 set_wall=T ns_energy=-10.497521902190437 last_walked_iter_clone=43468 energy=-10.497522232380636 stress="0.02661729475069361 2.4755633039407385e-06 -4.9861677485592045e-06 2.4755633039407385e-06 0.02661559664590803 -1.7302741380701114e-06 -4.9861677485592045e-06 -1.7302741380701114e-06 0.015092517952451081" pbc="T T F"
H        1.40307756       0.81006721      20.00000000        3       1.00000000       0.00000000       0.00000000       0.00000000       0.00000000       0.00000000       0.00000000
H        4.20923268       0.81006721      20.00000000        3       1.00000000       0.00000000       0.00000000       0.00000000       0.00000000       0.00000000       0.00000000
H        0.00000000       3.24026883      20.00000000        3       1.00000000       0.00000000       0.00000000       0.00000000       0.00000000       0.00000000       0.00000000
H        2.80615512       3.24026883      20.00000000        3       1.00000000       0.00000000       0.00000000       0.00000000       0.00000000       0.00000000       0.00000000
H        0.00000000       1.62013441      22.29121606        2       1.00000000       0.00000000       0.00000000       0.00000000       0.00000000       0.00000000       0.00000000
H        2.80615512       1.62013441      22.29121606        2       1.00000000       0.00000000       0.00000000       0.00000000       0.00000000       0.00000000       0.00000000
H        1.40307756       4.05033604      22.29121606        2       1.00000000       0.00000000       0.00000000       0.00000000       0.00000000       0.00000000       0.00000000
H        4.20923268       4.05033604      22.29121606        2       1.00000000       0.00000000       0.00000000       0.00000000       0.00000000       0.00000000       0.00000000
H        0.00000000       0.00000000      24.58243212        1       1.00000000       0.00000000       0.00000000       0.00000000       0.00000000       0.00000000       0.00000000
H        2.80615512       0.00000000      24.58243212        1       1.00000000       0.00000000       0.00000000       0.00000000       0.00000000       0.00000000       0.00000000
H        1.40307756       2.43020162      24.58243212        1       1.00000000       0.00000000       0.00000000       0.00000000       0.00000000       0.00000000       0.00000000
H        4.20923268       2.43020162      24.58243212        1       1.00000000       0.00000000       0.00000000       0.00000000       0.00000000       0.00000000       0.00000000
H        0.00024955       1.62005648      26.81077492        0       1.00000000      -0.00039930      -0.00015346      -0.00047860      -0.00149605      -0.00064504      -0.00024808
H        4.20947140       4.05017870      26.81083106        0       1.00000000       0.00056372       0.00001201      -0.00002233       0.00049821       0.00028886       0.00041168
H        2.80619315       1.61999154      26.81101875        0       1.00000000      -0.00056023      -0.00021735       0.00029516       0.00148796       0.00056168      -0.00047979
H        1.40321334       4.05047199      26.81113286        0       1.00000000      -0.00042263      -0.00001149       0.00032109      -0.00007494      -0.00006142      -0.00060850
16
Lattice="5.612310241546866 0.0 0.0 0.0 4.860403243099165 0.0 0.0 0.0 44.58243212332868" Properties=species:S:1:pos:R:3:tags:I:1:masses:R:1:momenta:R:3:forces:R:3 KEmax=20.68159280932131 iter=43469 volume=1216.1236359717223 set_wall=T ns_energy=-10.497521844579014 last_walked_iter_clone=43395 energy=-10.497522232380636 stress="0.02661729475069361 2.4755633039407385e-06 -4.9861677485592045e-06 2.4755633039407385e-06 0.02661559664590803 -1.7302741380701114e-06 -4.9861677485592045e-06 -1.7302741380701114e-06 0.015092517952451081" pbc="T T F"
H        1.40307756       0.81006721      20.00000000        3       1.00000000       0.00000000       0.00000000       0.00000000       0.00000000       0.00000000       0.00000000
H        4.20923268       0.81006721      20.00000000        3       1.00000000       0.00000000       0.00000000       0.00000000       0.00000000       0.00000000       0.00000000
H        0.00000000       3.24026883      20.00000000        3       1.00000000       0.00000000       0.00000000       0.00000000       0.00000000       0.00000000       0.00000000
H        2.80615512       3.24026883      20.00000000        3       1.00000000       0.00000000       0.00000000       0.00000000       0.00000000       0.00000000       0.00000000
H        0.00000000       1.62013441      22.29121606        2       1.00000000       0.00000000       0.00000000       0.00000000       0.00000000       0.00000000       0.00000000
H        2.80615512       1.62013441      22.29121606        2       1.00000000       0.00000000       0.00000000       0.00000000       0.00000000       0.00000000       0.00000000
H        1.40307756       4.05033604      22.29121606        2       1.00000000       0.00000000       0.00000000       0.00000000       0.00000000       0.00000000       0.00000000
H        4.20923268       4.05033604      22.29121606        2       1.00000000       0.00000000       0.00000000       0.00000000       0.00000000       0.00000000       0.00000000
H        0.00000000       0.00000000      24.58243212        1       1.00000000       0.00000000       0.00000000       0.00000000       0.00000000       0.00000000       0.00000000
H        2.80615512       0.00000000      24.58243212        1       1.00000000       0.00000000       0.00000000       0.00000000       0.00000000       0.00000000       0.00000000
H        1.40307756       2.43020162      24.58243212        1       1.00000000       0.00000000       0.00000000       0.00000000       0.00000000       0.00000000       0.00000000
H        4.20923268       2.43020162      24.58243212        1       1.00000000       0.00000000       0.00000000       0.00000000       0.00000000       0.00000000       0.00000000
H       -0.00017055       1.62038732      26.81123550        0       1.00000000      -0.00006672      -0.00009609       0.00000507      -0.00149605      -0.00064504      -0.00024808
H        4.20932685       4.05073738      26.81130558        0       1.00000000       0.00043124       0.00029150       0.00033066       0.00049821       0.00028886       0.00041168
H        2.80616578       1.62007075      26.81126030        0       1.00000000      -0.00023012       0.00041408      -0.00030431       0.00148796       0.00056168      -0.00047979
H        1.40281880       4.05023472      26.81111165        0       1.00000000      -0.00028392       0.00014876      -0.00043041      -0.00007494      -0.00006142      -0.00060850
16
Lattice="5.612310241546866 0.0 0.0 0.0 4.860403243099165 0.0 0.0 0.0 44.58243212332868" Properties=species:S:1:pos:R:3:tags:I:1:masses:R:1:momenta:R:3:forces:R:3 KEmax=20.68159280932131 iter=43469 volume=1216.1236359717223 set_wall=T ns_energy=-10.49752188712448 last_walked_iter_clone=43436 energy=-10.497522232380636 stress="0.02661729475069361 2.4755633039407385e-06 -4.9861677485592045e-06 2.4755633039407385e-06 0.02661559664590803 -1.7302741380701114e-06 -4.9861677485592045e-06 -1.7302741380701114e-06 0.015092517952451081" pbc="T T F"
H        1.40307756       0.81006721      20.00000000        3       1.00000000       0.00000000       0.00000000       0.00000000       0.00000000       0.00000000       0.00000000
H        4.20923268       0.81006721      20.00000000        3       1.00000000       0.00000000       0.00000000       0.00000000       0.00000000       0.00000000       0.00000000
H        0.00000000       3.24026883      20.00000000        3       1.00000000       0.00000000       0.00000000       0.00000000       0.00000000       0.00000000       0.00000000
H        2.80615512       3.24026883      20.00000000        3       1.00000000       0.00000000       0.00000000       0.00000000       0.00000000       0.00000000       0.00000000
H        0.00000000       1.62013441      22.29121606        2       1.00000000       0.00000000       0.00000000       0.00000000       0.00000000       0.00000000       0.00000000
H        2.80615512       1.62013441      22.29121606        2       1.00000000       0.00000000       0.00000000       0.00000000       0.00000000       0.00000000       0.00000000
H        1.40307756       4.05033604      22.29121606        2       1.00000000       0.00000000       0.00000000       0.00000000       0.00000000       0.00000000       0.00000000
H        4.20923268       4.05033604      22.29121606        2       1.00000000       0.00000000       0.00000000       0.00000000       0.00000000       0.00000000       0.00000000
H        0.00000000       0.00000000      24.58243212        1       1.00000000       0.00000000       0.00000000       0.00000000       0.00000000       0.00000000       0.00000000
H        2.80615512       0.00000000      24.58243212        1       1.00000000       0.00000000       0.00000000       0.00000000       0.00000000       0.00000000       0.00000000
H        1.40307756       2.43020162      24.58243212        1       1.00000000       0.00000000       0.00000000       0.00000000       0.00000000       0.00000000       0.00000000
H        4.20923268       2.43020162      24.58243212        1       1.00000000       0.00000000       0.00000000       0.00000000       0.00000000       0.00000000       0.00000000
H        0.00022586       1.62028314      26.81091481        0       1.00000000      -0.00036105       0.00019252      -0.00003459      -0.00149605      -0.00064504      -0.00024808
H        4.20948939       4.05049069      26.81089837        0       1.00000000      -0.00050281       0.00033859      -0.00048630       0.00049821       0.00028886       0.00041168
H        2.80637553       1.62004304      26.81075679        0       1.00000000       0.00007376      -0.00037744      -0.00051113       0.00148796       0.00056168      -0.00047979
H        1.40349047       4.05038533      26.81094916        0       1.00000000       0.00000514       0.00018834      -0.00049212      -0.00007494      -0.00006142      -0.00060850
16
Lattice="5.612310241546866 0.0 0.0 0.0 4.860403243099165 0.0 0.0 0.0 44.58243212332868" Properties=species:S:1:pos:R:3:tags:I:1:masses:R:1:momenta:R:3:forces:R:3 KEmax=20.68159280932131 iter=43469 volume=1216.1236359717223 set_wall=T ns_energy=-10.497521846954575 last_walked_iter_clone=43407 energy=-10.497522232380636 stress="0.02661729475069361 2.4755633039407385e-06 -4.9861677485592045e-06 2.4755633039407385e-06 0.02661559664590803 -1.7302741380701114e-06 -4.9861677485592045e-06 -1.7302741380701114e-06 0.015092517952451081" pbc="T T F"
H        1.40307756       0.81006721      20.00000000        3       1.00000000       0.00000000       0.00000000       0.00000000       0.00000000       0.00000000       0.00000000
H        4.20923268       0.81006721      20.00000000        3       1.00000000       0.00000000       0.00000000       0.00000000       0.00000000       0.00000000       0.00000000
H        0.00000000       3.24026883      20.00000000        3       1.00000000       0.00000000       0.00000000       0.00000000       0.00000000       0.00000000       0.00000000
H        2.80615512       3.24026883      20.00000000        3       1.00000000       0.00000000       0.00000000       0.00000000       0.00000000       0.00000000       0.00000000
H        0.00000000       1.62013441      22.29121606        2       1.00000000       0.00000000       0.00000000       0.00000000       0.00000000       0.00000000       0.00000000
H        2.80615512       1.62013441      22.29121606        2       1.00000000       0.00000000       0.00000000       0.00000000       0.00000000       0.00000000       0.00000000
H        1.40307756       4.05033604      22.29121606        2       1.00000000       0.00000000       0.00000000       0.00000000       0.00000000       0.00000000       0.00000000
H        4.20923268       4.05033604      22.29121606        2       1.00000000       0.00000000       0.00000000       0.00000000       0.00000000       0.00000000       0.00000000
H        0.00000000       0.00000000      24.58243212        1       1.00000000       0.00000000       0.00000000       0.00000000       0.00000000       0.00000000       0.00000000
H        2.80615512       0.00000000      24.58243212        1       1.00000000       0.00000000       0.00000000       0.00000000       0.00000000       0.00000000       0.00000000
H        1.40307756       2.43020162      24.58243212        1       1.00000000       0.00000000       0.00000000       0.00000000       0.00000000       0.00000000       0.00000000
H        4.20923268       2.43020162      24.58243212        1       1.00000000       0.00000000       0.00000000       0.00000000       0.00000000       0.00000000       0.00000000
H        5.61246616       1.62012562      26.81092743        0       1.00000000       0.00063762      -0.00004014      -0.00026585      -0.00149605      -0.00064504      -0.00024808
H        4.20945604       4.05035767      26.81118820        0       1.00000000       0.00002797      -0.00000833      -0.00002636       0.00049821       0.00028886       0.00041168
H        2.80602182       1.61993535      26.81055262        0       1.00000000       0.00036024      -0.00033913       0.00014839       0.00148796       0.00056168      -0.00047979
H        1.40305878       4.05014599      26.81140138        0       1.00000000       0.00005479       0.00009981      -0.00016985      -0.00007494      -0.00006142      -0.00060850
16
Lattice="5.612310241546866 0.0 0.0 0.0 4.860403243099165 0.0 0.0 0.0 44.58243212332868" Properties=species:S:1:pos:R:3:tags:I:1:masses:R:1:momenta:R:3:forces:R:3 KEmax=20.68159280932131 iter=43469 volume=1216.1236359717223 set_wall=T ns_energy=-10.497521913434902 last_walked_iter_clone=43315 energy=-10.497522232380636 stress="0.02661729475069361 2.4755633039407385e-06 -4.9861677485592045e-06 2.4755633039407385e-06 0.02661559664590803 -1.7302741380701114e-06 -4.9861677485592045e-06 -1.7302741380701114e-06 0.015092517952451081" pbc="T T F"
H        1.40307756       0.81006721      20.00000000        3       1.00000000       0.00000000       0.00000000       0.00000000       0.00000000       0.00000000       0.00000000
H        4.20923268       0.81006721      20.00000000        3       1.00000000       0.00000000       0.00000000       0.00000000       0.00000000       0.00000000       0.00000000
H        0.00000000       3.24026883      20.00000000        3       1.00000000       0.00000000       0.00000000       0.00000000       0.00000000       0.00000000       0.00000000
H        2.80615512       3.24026883      20.00000000        3       1.00000000       0.00000000       0.00000000       0.00000000       0.00000000       0.00000000       0.00000000
H        0.00000000       1.62013441      22.29121606        2       1.00000000       0.00000000       0.00000000       0.00000000       0.00000000       0.00000000       0.00000000
H        2.80615512       1.62013441      22.29121606        2       1.00000000       0.00000000       0.00000000       0.00000000       0.00000000       0.00000000       0.00000000
H        1.40307756       4.05033604      22.29121606        2       1.00000000       0.00000000       0.00000000       0.00000000       0.00000000       0.00000000       0.00000000
H        4.20923268       4.05033604      22.29121606        2       1.00000000       0.00000000       0.00000000       0.00000000       0.00000000       0.00000000       0.00000000
H        0.00000000       0.00000000      24.58243212        1       1.00000000       0.00000000       0.00000000       0.00000000       0.00000000       0.00000000       0.00000000
H        2.80615512       0.00000000      24.58243212        1       1.00000000       0.00000000       0.00000000       0.00000000       0.00000000       0.00000000       0.00000000
H        1.40307756       2.43020162      24.58243212        1       1.00000000       0.00000000       0.00000000       0.00000000       0.00000000       0.00000000       0.00000000
H        4.20923268       2.43020162      24.58243212        1       1.00000000       0.00000000       0.00000000       0.00000000       0.00000000       0.00000000       0.00000000
H       -0.00007686       1.62017743      26.81076525        0       1.00000000       0.00000022       0.00020794      -0.00034731      -0.00149605      -0.00064504      -0.00024808
H        4.20917801       4.05054026      26.81099528        0       1.00000000      -0.00035490      -0.00020526      -0.00056931       0.00049821       0.00028886       0.00041168
H        2.80644995       1.62021789      26.81084869        0       1.00000000      -0.00024708      -0.00008331      -0.00007400       0.00148796       0.00056168      -0.00047979
H        1.40312695       4.05021754      26.81091159        0       1.00000000      -0.00065321       0.00023961       0.00005938      -0.00007494      -0.00006142      -0.00060850
16
Lattice="5.612310241546866 0.0 0.0 0.0 4.860403243099165 0.0 0.0 0.0 44.58243212332868" Properties=species:S:1:pos:R:3:tags:I:1:masses:R:1:momenta:R:3:forces:R:3 KEmax=20.68159280932131 iter=43469 volume=1216.1236359717223 set_wall=T ns_energy=-10.497521881196974 last_walked_iter_clone=43351 energy=-10.497522232380636 stress="0.02661729475069361 2.4755633039407385e-06 -4.9861677485592045e-06 2.4755633039407385e-06 0.02661559664590803 -1.7302741380701114e-06 -4.9861677485592045e-06 -1.7302741380701114e-06 0.015092517952451081" pbc="T T F"
H        1.40307756       0.81006721      20.00000000        3       1.00000000       0.00000000       0.00000000       0.00000000       0.00000000       0.00000000       0.00000000
H        4.20923268       0.81006721      20.00000000        3       1.00000000       0.00000000       0.00000000       0.00000000       0.00000000       0.00000000       0.00000000
H        0.00000000       3.24026883      20.00000000        3       1.00000000       0.00000000       0.00000000       0.00000000       0.00000000       0.00000000       0.00000000
H        2.80615512       3.24026883      20.00000000        3       1.00000000       0.00000000       0.00000000       0.00000000       0.00000000       0.00000000       0.00000000
H        0.00000000       1.62013441      22.29121606        2       1.00000000       0.00000000       0.00000000       0.00000000       0.00000000       0.00000000       0.00000000
H        2.80615512       1.62013441      22.29121606        2       1.00000000       0.00000000       0.00000000       0.00000000       0.00000000       0.00000000       0.00000000
H        1.40307756       4.05033604      22.29121606        2       1.00000000       0.00000000       0.00000000       0.00000000       0.00000000       0.00000000       0.00000000
H        4.20923268       4.05033604      22.29121606        2       1.00000000       0.00000000       0.00000000       0.00000000       0.00000000       0.00000000       0.00000000
H        0.00000000       0.00000000      24.58243212        1       1.00000000       0.00000000       0.00000000       0.00000000       0.00000000       0.00000000       0.00000000