18
Lattice="5.612310241546866 0.0 0.0 0.0 4.860403243099165 0.0 0.0 0.0 24.582432123328676" Properties=species:S:1:pos:R:3:tags:I:1:masses:R:1:momenta:R:3:forces:R:3 KEmax=23.26679191048647 iter=239999 volume=670.5618179858607 ns_energy=-11.637341369251125 last_walked_iter_clone=239741 energy=-11.637341369254273 stress="0.022592851798063883 5.788761068935777e-09 1.5629247012203624e-08 5.788761068935777e-09 0.02270718348374403 4.4700351120911746e-09 1.5629247012203624e-08 4.4700351120911746e-09 0.012329763911573205" pbc="T T F"
H        1.40307756       0.81006721      10.00000000        3       1.00000000       0.00000000       0.00000000       0.00000000       0.00000000       0.00000000       0.00000000
H        4.20923268       0.81006721      10.00000000        3       1.00000000       0.00000000       0.00000000       0.00000000       0.00000000       0.00000000       0.00000000
H        0.00000000       3.24026883      10.00000000        3       1.00000000       0.00000000       0.00000000       0.00000000       0.00000000       0.00000000       0.00000000
H        2.80615512       3.24026883      10.00000000        3       1.00000000       0.00000000       0.00000000       0.00000000       0.00000000       0.00000000       0.00000000
H        0.00000000       1.62013441      12.29121606        2       1.00000000       0.00000000       0.00000000       0.00000000       0.00000000       0.00000000       0.00000000
H        2.80615512       1.62013441      12.29121606        2       1.00000000       0.00000000       0.00000000       0.00000000       0.00000000       0.00000000       0.00000000
H        1.40307756       4.05033604      12.29121606        2       1.00000000       0.00000000       0.00000000       0.00000000       0.00000000       0.00000000       0.00000000
H        4.20923268       4.05033604      12.29121606        2       1.00000000       0.00000000       0.00000000       0.00000000       0.00000000       0.00000000       0.00000000
H        0.00000000       0.00000000      14.58243212        1       1.00000000       0.00000000       0.00000000       0.00000000       0.00000000       0.00000000       0.00000000
H        2.80615512       0.00000000      14.58243212        1       1.00000000       0.00000000       0.00000000       0.00000000       0.00000000       0.00000000       0.00000000
H        1.40307756       2.43020162      14.58243212        1       1.00000000       0.00000000       0.00000000       0.00000000       0.00000000       0.00000000       0.00000000
H        4.20923268       2.43020162      14.58243212        1       1.00000000       0.00000000       0.00000000       0.00000000       0.00000000       0.00000000       0.00000000
H        1.39315472       0.81021367      16.81077024        0       1.00000000      -0.00000059      -0.00000038      -0.00000027      -0.00000015       0.00000111      -0.00000041
H        4.20923241       4.05033602       7.77136728        0       1.00000000       0.00000037      -0.00000056      -0.00000073       0.00000061       0.00000021       0.00000004
H        2.81607936       3.24041490      16.81077038        0       1.00000000       0.00000066      -0.00000228       0.00000045      -0.00000054      -0.00000194       0.00000097
H        2.80615491       1.62013438       7.77136760        0       1.00000000      -0.00000000      -0.00000046       0.00000038       0.00000098      -0.00000104       0.00000022
H        1.40307766       4.05033626       7.77136719        0       1.00000000       0.00000038       0.00000064       0.00000002      -0.00000132      -0.00000041      -0.00000110
H       -0.00000026       1.62013434       7.77136763        0       1.00000000      -0.00000061      -0.00000026      -0.00000041       0.00000078       0.00000052       0.00000107
18
Lattice="5.612310241546866 0.0 0.0 0.0 4.860403243099165 0.0 0.0 0.0 24.582432123328676" Properties=species:S:1:pos:R:3:tags:I:1:masses:R:1:momenta:R:3:forces:R:3 KEmax=23.26679191048647 iter=239999 volume=670.5618179858607 ns_energy=-11.637341369251153 last_walked_iter_clone=238400 energy=-11.637341369254273 stress="0.022592851798063883 5.788761068935777e-09 1.5629247012203624e-08 5.788761068935777e-09 0.02270718348374403 4.4700351120911746e-09 1.5629247012203624e-08 4.4700351120911746e-09 0.012329763911573205" pbc="T T F"
H        1.40307756       0.81006721      10.00000000        3       1.00000000       0.00000000       0.00000000       0.00000000       0.00000000       0.00000000       0.00000000
H        4.20923268       0.81006721      10.00000000        3       1.00000000       0.00000000       0.00000000       0.00000000       0.00000000       0.00000000       0.00000000
H        0.00000000       3.24026883      10.00000000        3       1.00000000       0.00000000       0.00000000       0.00000000       0.00000000       0.00000000       0.00000000
H        2.80615512       3.24026883      10.00000000        3       1.00000000       0.00000000       0.00000000       0.00000000       0.00000000       0.00000000       0.00000000
H        0.00000000       1.62013441      12.29121606        2       1.00000000       0.00000000       0.00000000       0.00000000       0.00000000       0.00000000       0.00000000
H        2.80615512       1.62013441      12.29121606        2       1.00000000       0.00000000       0.00000000       0.00000000       0.00000000       0.00000000       0.00000000
H        1.40307756       4.05033604      12.29121606        2       1.00000000       0.00000000       0.00000000       0.00000000       0.00000000       0.00000000       0.00000000
H        4.20923268       4.05033604      12.29121606        2       1.00000000       0.00000000       0.00000000       0.00000000       0.00000000       0.00000000       0.00000000
H        0.00000000       0.00000000      14.58243212        1       1.00000000       0.00000000       0.00000000       0.00000000       0.00000000       0.00000000       0.00000000
H        2.80615512       0.00000000      14.58243212        1       1.00000000       0.00000000       0.00000000       0.00000000       0.00000000       0.00000000       0.00000000
H        1.40307756       2.43020162      14.58243212        1       1.00000000       0.00000000       0.00000000       0.00000000       0.00000000       0.00000000       0.00000000
H        4.20923268       2.43020162      14.58243212        1       1.00000000       0.00000000       0.00000000       0.00000000       0.00000000       0.00000000       0.00000000
H        1.39315327       0.81021333      16.81077027        0       1.00000000       0.00000037      -0.00000006       0.00000107      -0.00000015       0.00000111      -0.00000041
H        4.20923302       4.05033577       7.77136756        0       1.00000000      -0.00000055       0.00000076      -0.00000017       0.00000061       0.00000021       0.00000004
H        2.81607864       3.24041531      16.81076999        0       1.00000000      -0.00000079       0.00000017       0.00000049      -0.00000054      -0.00000194       0.00000097
H        2.80615508       1.62013465       7.77136664        0       1.00000000       0.00000006       0.00000106       0.00000050       0.00000098      -0.00000104       0.00000022
H        1.40307755       4.05033670       7.77136720        0       1.00000000      -0.00000015      -0.00000058       0.00000014      -0.00000132      -0.00000041      -0.00000110
H        5.61231013       1.62013491       7.77136722        0       1.00000000      -0.00000028       0.00000022      -0.00000106       0.00000078       0.00000052       0.00000107
18
Lattice="5.612310241546866 0.0 0.0 0.0 4.860403243099165 0.0 0.0 0.0 24.582432123328676" Properties=species:S:1:pos:R:3:tags:I:1:masses:R:1:momenta:R:3:forces:R:3 KEmax=23.26679191048647 iter=239999 volume=670.5618179858607 ns_energy=-11.63734136925116 last_walked_iter_clone=235506 energy=-11.637341369254273 stress="0.022592851798063883 5.788761068935777e-09 1.5629247012203624e-08 5.788761068935777e-09 0.02270718348374403 4.4700351120911746e-09 1.5629247012203624e-08 4.4700351120911746e-09 0.012329763911573205" pbc="T T F"
H        1.40307756       0.81006721      10.00000000        3       1.00000000       0.00000000       0.00000000       0.00000000       0.00000000       0.00000000       0.00000000
H        4.20923268       0.81006721      10.00000000        3       1.00000000       0.00000000       0.00000000       0.00000000       0.00000000       0.00000000       0.00000000
H        0.00000000       3.24026883      10.00000000        3       1.00000000       0.00000000       0.00000000       0.00000000       0.00000000       0.00000000       0.00000000
H        2.80615512       3.24026883      10.00000000        3       1.00000000       0.00000000       0.00000000       0.00000000       0.00000000       0.00000000       0.00000000
H        0.00000000       1.62013441      12.29121606        2       1.00000000       0.00000000       0.00000000       0.00000000       0.00000000       0.00000000       0.00000000
H        2.80615512       1.62013441      12.29121606        2       1.00000000       0.00000000       0.00000000       0.00000000       0.00000000       0.00000000       0.00000000
H        1.40307756       4.05033604      12.29121606        2       1.00000000       0.00000000       0.00000000       0.00000000       0.00000000       0.00000000       0.00000000
H        4.20923268       4.05033604      12.29121606        2       1.00000000       0.00000000       0.00000000       0.00000000       0.00000000       0.00000000       0.00000000
H        0.00000000       0.00000000      14.58243212        1       1.00000000       0.00000000       0.00000000       0.00000000       0.00000000       0.00000000       0.00000000
H        2.80615512       0.00000000      14.58243212        1       1.00000000       0.00000000       0.00000000       0.00000000       0.00000000       0.00000000       0.00000000
H        1.40307756       2.43020162      14.58243212        1       1.00000000       0.00000000       0.00000000       0.00000000       0.00000000       0.00000000       0.00000000
H        4.20923268       2.43020162      14.58243212        1       1.00000000       0.00000000       0.00000000       0.00000000       0.00000000       0.00000000       0.00000000
H        1.39315444       0.81021449      16.81077066        0       1.00000000       0.00000064      -0.00000079       0.00000030      -0.00000015       0.00000111      -0.00000041
H        4.20923268       4.05033580       7.77136727        0       1.00000000       0.00000010      -0.00000102       0.00000069       0.00000061       0.00000021       0.00000004
H        2.81607861       3.24041539      16.81077061        0       1.00000000       0.00000042       0.00000054      -0.00000009      -0.00000054      -0.00000194       0.00000097
H        2.80615454       1.62013401       7.77136756        0       1.00000000       0.00000130       0.00000029       0.00000152       0.00000098      -0.00000104       0.00000022
H        1.40307751       4.05033547       7.77136709        0       1.00000000      -0.00000080       0.00000040       0.00000027      -0.00000132      -0.00000041      -0.00000110
H        0.00000002       1.62013368       7.77136727        0       1.00000000       0.00000021       0.00000020      -0.00000017       0.00000078       0.00000052       0.00000107
18
Lattice="5.612310241546866 0.0 0.0 0.0 4.860403243099165 0.0 0.0 0.0 24.582432123328676" Properties=species:S:1:pos:R:3:tags:I:1:masses:R:1:momenta:R:3:forces:R:3 KEmax=23.26679191048647 iter=239999 volume=670.5618179858607 ns_energy=-11.637341369251265 last_walked_iter_clone=235609 energy=-11.637341369254273 stress="0.022592851798063883 5.788761068935777e-09 1.5629247012203624e-08 5.788761068935777e-09 0.02270718348374403 4.4700351120911746e-09 1.5629247012203624e-08 4.4700351120911746e-09 0.012329763911573205" pbc="T T F"
H        1.40307756       0.81006721      10.00000000        3       1.00000000       0.00000000       0.00000000       0.00000000       0.00000000       0.00000000       0.00000000
H        4.20923268       0.81006721      10.00000000        3       1.00000000       0.00000000       0.00000000       0.00000000       0.00000000       0.00000000       0.00000000
H        0.00000000       3.24026883      10.00000000        3       1.00000000       0.00000000       0.00000000       0.00000000       0.00000000       0.00000000       0.00000000
H        2.80615512       3.24026883      10.00000000        3       1.00000000       0.00000000       0.00000000       0.00000000       0.00000000       0.00000000       0.00000000
H        0.00000000       1.62013441      12.29121606        2       1.00000000       0.00000000       0.00000000       0.00000000       0.00000000       0.00000000       0.00000000
H        2.80615512       1.62013441      12.29121606        2       1.00000000       0.00000000       0.00000000       0.00000000       0.00000000       0.00000000       0.00000000
H        1.40307756       4.05033604      12.29121606        2       1.00000000       0.00000000       0.00000000       0.00000000       0.00000000       0.00000000       0.00000000
H        4.20923268       4.05033604      12.29121606        2       1.00000000       0.00000000       0.00000000       0.00000000       0.00000000       0.00000000       0.00000000
H        0.00000000       0.00000000      14.58243212        1       1.00000000       0.00000000       0.00000000       0.00000000       0.00000000       0.00000000       0.00000000
H        2.80615512       0.00000000      14.58243212        1       1.00000000       0.00000000       0.00000000       0.00000000       0.00000000       0.00000000       0.00000000
H        1.40307756       2.43020162      14.58243212        1       1.00000000       0.00000000       0.00000000       0.00000000       0.00000000       0.00000000       0.00000000
H        4.20923268       2.43020162      14.58243212        1       1.00000000       0.00000000       0.00000000       0.00000000       0.00000000       0.00000000       0.00000000
H        1.39315356       0.81021402      16.81077028        0       1.00000000      -0.00000003       0.00000071      -0.00000019      -0.00000015       0.00000111      -0.00000041
H        4.20923307       4.05033548       7.77136719        0       1.00000000      -0.00000001       0.00000006      -0.00000017       0.00000061       0.00000021       0.00000004
H        2.81607889       3.24041530      16.81077064        0       1.00000000      -0.00000018       0.00000006       0.00000009      -0.00000054      -0.00000194       0.00000097
H        2.80615462       1.62013406       7.77136783        0       1.00000000       0.00000019      -0.00000070       0.00000045       0.00000098      -0.00000104       0.00000022
H        1.40307779       4.05033541       7.77136713        0       1.00000000      -0.00000190       0.00000139       0.00000007      -0.00000132      -0.00000041      -0.00000110
H       -0.00000025       1.62013368       7.77136740        0       1.00000000      -0.00000015       0.00000001      -0.00000041       0.00000078       0.00000052       0.00000107
18
Lattice="5.612310241546866 0.0 0.0 0.0 4.860403243099165 0.0 0.0 0.0 24.582432123328676" Properties=species:S:1:pos:R:3:tags:I:1:masses:R:1:momenta:R:3:forces:R:3 KEmax=23.26679191048647 iter=239999 volume=670.5618179858607 ns_energy=-11.637341369251029 last_walked_iter_clone=239137 energy=-11.637341369254273 stress="0.022592851798063883 5.788761068935777e-09 1.5629247012203624e-08 5.788761068935777e-09 0.02270718348374403 4.4700351120911746e-09 1.5629247012203624e-08 4.4700351120911746e-09 0.012329763911573205" pbc="T T F"
H        1.40307756       0.81006721      10.00000000        3       1.00000000       0.00000000       0.00000000       0.00000000       0.00000000       0.00000000       0.00000000
H        4.20923268       0.81006721      10.00000000        3       1.00000000       0.00000000       0.00000000       0.00000000       0.00000000       0.00000000       0.00000000
H        0.00000000       3.24026883      10.00000000        3       1.00000000       0.00000000       0.00000000       0.00000000       0.00000000       0.00000000       0.00000000
H        2.80615512       3.24026883      10.00000000        3       1.00000000       0.00000000       0.00000000       0.00000000       0.00000000       0.00000000       0.00000000
H        0.00000000       1.62013441      12.29121606        2       1.00000000       0.00000000       0.00000000       0.00000000       0.00000000       0.00000000       0.00000000
H        2.80615512       1.62013441      12.29121606        2       1.00000000       0.00000000       0.00000000       0.00000000       0.00000000       0.00000000       0.00000000
H        1.40307756       4.05033604      12.29121606        2       1.00000000       0.00000000       0.00000000       0.00000000       0.00000000       0.00000000       0.00000000
H        4.20923268       4.05033604      12.29121606        2       1.00000000       0.00000000       0.00000000       0.00000000       0.00000000       0.00000000       0.00000000
H        0.00000000       0.00000000      14.58243212        1       1.00000000       0.00000000       0.00000000       0.00000000       0.00000000       0.00000000       0.00000000
H        2.80615512       0.00000000      14.58243212        1       1.00000000       0.00000000       0.00000000       0.00000000       0.00000000       0.00000000       0.00000000
H        1.40307756       2.43020162      14.58243212        1       1.00000000       0.00000000       0.00000000       0.00000000       0.00000000       0.00000000       0.00000000
H        4.20923268       2.43020162      14.58243212        1       1.00000000       0.00000000       0.00000000       0.00000000       0.00000000       0.00000000       0.00000000
H        1.39315459       0.81021358      16.81077030        0       1.00000000      -0.00000040       0.00000027      -0.00000013      -0.00000015       0.00000111      -0.00000041
H        4.20923253       4.05033630       7.77136739        0       1.00000000      -0.00000004       0.00000068      -0.00000015       0.00000061       0.00000021       0.00000004
H        2.81607939       3.24041487      16.81077035        0       1.00000000      -0.00000041      -0.00000044       0.00000201      -0.00000054      -0.00000194       0.00000097
H        2.80615491       1.62013416       7.77136758        0       1.00000000      -0.00000017       0.00000065      -0.00000000       0.00000098      -0.00000104       0.00000022
H        1.40307768       4.05033606       7.77136715        0       1.00000000       0.00000043      -0.00000009      -0.00000112      -0.00000132      -0.00000041      -0.00000110
H        5.61231013       1.62013446       7.77136765        0       1.00000000      -0.00000058      -0.00000100       0.00000064       0.00000078       0.00000052       0.00000107
18
Lattice="5.612310241546866 0.0 0.0 0.0 4.860403243099165 0.0 0.0 0.0 24.582432123328676" Properties=species:S:1:pos:R:3:tags:I:1:masses:R:1:momenta:R:3:forces:R:3 KEmax=23.26679191048647 iter=239999 volume=670.5618179858607 ns_energy=-11.637341369251484 last_walked_iter_clone=234760 energy=-11.637341369254273 stress="0.022592851798063883 5.788761068935777e-09 1.5629247012203624e-08 5.788761068935777e-09 0.02270718348374403 4.4700351120911746e-09 1.5629247012203624e-08 4.4700351120911746e-09 0.012329763911573205" pbc="T T F"
H        1.40307756       0.81006721      10.00000000        3       1.00000000       0.00000000       0.00000000       0.00000000       0.00000000       0.00000000       0.00000000
H        4.20923268       0.81006721      10.00000000        3       1.00000000       0.00000000       0.00000000       0.00000000       0.00000000       0.00000000       0.00000000
H        0.00000000       3.24026883      10.00000000        3       1.00000000       0.00000000       0.00000000       0.00000000       0.00000000       0.00000000       0.00000000
H        2.80615512       3.24026883      10.00000000        3       1.00000000       0.00000000       0.00000000       0.00000000       0.00000000       0.00000000       0.00000000
H        0.00000000       1.62013441      12.29121606        2       1.00000000       0.00000000       0.00000000       0.00000000       0.00000000       0.00000000       0.00000000
H        2.80615512       1.62013441      12.29121606        2       1.00000000       0.00000000       0.00000000       0.00000000       0.00000000       0.00000000       0.00000000
H        1.40307756       4.05033604      12.29121606        2       1.00000000       0.00000000       0.00000000       0.00000000       0.00000000       0.00000000       0.00000000
H        4.20923268       4.05033604      12.29121606        2       1.00000000       0.00000000       0.00000000       0.00000000       0.00000000       0.00000000       0.00000000
H        0.00000000       0.00000000      14.58243212        1       1.00000000       0.00000000       0.00000000       0.00000000       0.00000000       0.00000000       0.00000000
H        2.80615512       0.00000000      14.58243212        1       1.00000000       0.00000000       0.00000000       0.00000000       0.00000000       0.00000000       0.00000000
H        1.40307756       2.43020162      14.58243212        1       1.00000000       0.00000000       0.00000000       0.00000000       0.00000000       0.00000000       0.00000000
H        4.20923268       2.43020162      14.58243212        1       1.00000000       0.00000000       0.00000000       0.00000000       0.00000000       0.00000000       0.00000000
H        1.39315413       0.81021403      16.81077039        0       1.00000000      -0.00000021      -0.00000031       0.00000041      -0.00000015       0.00000111      -0.00000041
H        4.20923284       4.05033628       7.77136717        0       1.00000000       0.00000030      -0.00000052      -0.00000046       0.00000061       0.00000021       0.00000004
H        2.81607859       3.24041574      16.81077015        0       1.00000000       0.00000086       0.00000021      -0.00000054      -0.00000054      -0.00000194       0.00000097
H        2.80615548       1.62013404       7.77136692        0       1.00000000      -0.00000019       0.00000019      -0.00000036       0.00000098      -0.00000104       0.00000022
H        1.40307788       4.05033581       7.77136742        0       1.00000000      -0.00000046       0.00000219       0.00000105      -0.00000132      -0.00000041      -0.00000110
H        0.00000024       1.62013434       7.77136725        0       1.00000000      -0.00000038       0.00000098      -0.00000047       0.00000078       0.00000052       0.00000107
18
Lattice="5.612310241546866 0.0 0.0 0.0 4.860403243099165 0.0 0.0 0.0 24.582432123328676" Properties=species:S:1:pos:R:3:tags:I:1:masses:R:1:momenta:R:3:forces:R:3 KEmax=23.26679191048647 iter=239999 volume=670.5618179858607 ns_energy=-11.637341369251171 last_walked_iter_clone=239182 energy=-11.637341369254273 stress="0.022592851798063883 5.788761068935777e-09 1.5629247012203624e-08 5.788761068935777e-09 0.02270718348374403 4.4700351120911746e-09 1.5629247012203624e-08 4.4700351120911746e-09 0.012329763911573205" pbc="T T F"
H        1.40307756       0.81006721      10.00000000        3       1.00000000       0.00000000       0.00000000       0.00000000       0.00000000       0.00000000       0.00000000
H        4.20923268       0.81006721      10.00000000        3       1.00000000       0.00000000       0.00000000       0.00000000       0.00000000       0.00000000       0.00000000
H        0.00000000       3.24026883      10.00000000        3       1.00000000       0.00000000       0.00000000       0.00000000       0.00000000       0.00000000       0.00000000
H        2.80615512       3.24026883      10.00000000        3       1.00000000       0.00000000       0.00000000       0.00000000       0.00000000       0.00000000       0.00000000
H        0.00000000       1.62013441      12.29121606        2       1.00000000       0.00000000       0.00000000       0.00000000       0.00000000       0.00000000       0.00000000
H        2.80615512       1.62013441      12.29121606        2       1.00000000       0.00000000       0.00000000       0.00000000       0.00000000       0.00000000       0.00000000
H        1.40307756       4.05033604      12.29121606        2       1.00000000       0.00000000       0.00000000       0.00000000       0.00000000       0.00000000       0.00000000
H        4.20923268       4.05033604      12.29121606        2       1.00000000       0.00000000       0.00000000       0.00000000       0.00000000       0.00000000       0.00000000
H        0.00000000       0.00000000      14.58243212        1       1.00000000       0.00000000       0.00000000       0.00000000       0.00000000       0.00000000       0.00000000
H        2.80615512       0.00000000      14.58243212        1       1.00000000       0.00000000       0.00000000       0.00000000       0.00000000       0.00000000       0.00000000
H        1.40307756       2.43020162      14.58243212        1       1.00000000       0.00000000       0.00000000       0.00000000       0.00000000       0.00000000       0.00000000
H        4.20923268       2.43020162      14.58243212        1       1.00000000       0.00000000       0.00000000       0.00000000       0.00000000       0.00000000       0.00000000
H        1.39315400       0.81021394      16.81077042        0       1.00000000       0.00000139       0.00000068       0.00000091      -0.00000015       0.00000111      -0.00000041
H        4.20923297       4.05033595       7.77136722        0       1.00000000      -0.00000011       0.00000142       0.00000045       0.00000061       0.00000021       0.00000004
H        2.81607887       3.24041585      16.81077021        0       1.00000000      -0.00000077       0.00000076      -0.00000077      -0.00000054      -0.00000194       0.00000097
H        2.80615541       1.62013412       7.77136693        0       1.00000000       0.00000080      -0.00000088      -0.00000069       0.00000098      -0.00000104       0.00000022
H        1.40307770       4.05033614       7.77136739        0       1.00000000       0.00000016       0.00000024      -0.00000036      -0.00000132      -0.00000041      -0.00000110
H        0.00000028       1.62013429       7.77136722        0       1.00000000      -0.00000022      -0.00000009       0.00000077       0.00000078       0.00000052       0.00000107
18
Lattice="5.612310241546866 0.0 0.0 0.0 4.860403243099165 0.0 0.0 0.0 24.582432123328676" Properties=species:S:1:pos:R:3:tags:I:1:masses:R:1:momenta:R:3:forces:R:3 KEmax=23.26679191048647 iter=239999 volume=670.5618179858607 ns_energy=-11.637341369251098 last_walked_iter_clone=239904 energy=-11.637341369254273 stress="0.022592851798063883 5.788761068935777e-09 1.5629247012203624e-08 5.788761068935777e-09 0.02270718348374403 4.4700351120911746e-09 1.5629247012203624e-08 4.4700351120911746e-09 0.012329763911573205" pbc="T T F"
H        1.40307756       0.81006721      10.00000000        3       1.00000000       0.00000000       0.00000000       0.00000000       0.00000000       0.00000000       0.00000000
H        4.20923268       0.81006721      10.00000000        3       1.00000000       0.00000000       0.00000000       0.00000000       0.00000000       0.00000000       0.00000000
H        0.00000000       3.24026883      10.00000000        3       1.00000000       0.00000000       0.00000000       0.00000000       0.00000000       0.00000000       0.00000000
H        2.80615512       3.24026883      10.00000000        3       1.00000000       0.00000000       0.00000000       0.00000000       0.00000000       0.00000000       0.00000000
H        0.00000000       1.62013441      12.29121606        2       1.00000000       0.00000000       0.00000000       0.00000000       0.00000000       0.00000000       0.00000000
H        2.80615512       1.62013441      12.29121606        2       1.00000000       0.00000000       0.00000000       0.00000000       0.00000000       0.00000000       0.00000000
H        1.40307756       4.05033604      12.29121606        2       1.00000000       0.00000000       0.00000000       0.00000000       0.00000000       0.00000000       0.00000000
H        4.20923268       4.05033604      12.29121606        2       1.00000000       0.00000000       0.00000000       0.00000000       0.00000000       0.00000000       0.00000000
H        0.00000000       0.00000000      14.58243212        1       1.00000000       0.00000000       0.00000000       0.00000000       0.00000000       0.00000000       0.00000000
H        2.80615512       0.00000000      14.58243212        1       1.00000000       0.00000000       0.00000000       0.00000000       0.00000000       0.00000000       0.00000000
H        1.40307756       2.43020162      14.58243212        1       1.00000000       0.00000000       0.00000000       0.00000000       0.00000000       0.00000000       0.00000000
H        4.20923268       2.43020162      14.58243212        1       1.00000000       0.00000000       0.00000000       0.00000000       0.00000000       0.00000000       0.00000000
H        1.39315416       0.81021403      16.81077043        0       1.00000000      -0.00000057       0.00000149      -0.00000116      -0.00000015       0.00000111      -0.00000041
H        4.20923282       4.05033607       7.77136715        0       1.00000000      -0.00000011       0.00000076      -0.00000019       0.00000061       0.00000021       0.00000004
H        2.81607871       3.24041569      16.81077020        0       1.00000000       0.00000100      -0.00000040      -0.00000080      -0.00000054      -0.00000194       0.00000097