18
Lattice="5.612310241546866 0.0 0.0 0.0 4.860403243099165 0.0 0.0 0.0 24.582432123328676" Properties=species:S:1:pos:R:3:tags:I:1:masses:R:1:momenta:R:3:forces:R:3 KEmax=23.26679191048647 iter=229679 volume=670.5618179858607 ns_energy=-11.637341369250407 last_walked_iter_clone=229541 energy=-11.637341369254255 stress="0.02259286376482595 -2.4930511220219986e-09 -5.154290211922431e-09 -2.4930511220219986e-09 0.02270719521421043 7.062499059890425e-09 -5.154290211922431e-09 7.062499059890425e-09 0.012329802105165986" pbc="T T F"
H        1.40307756       0.81006721      10.00000000        3       1.00000000       0.00000000       0.00000000       0.00000000       0.00000000       0.00000000       0.00000000
H        4.20923268       0.81006721      10.00000000        3       1.00000000       0.00000000       0.00000000       0.00000000       0.00000000       0.00000000       0.00000000
H        0.00000000       3.24026883      10.00000000        3       1.00000000       0.00000000       0.00000000       0.00000000       0.00000000       0.00000000       0.00000000
H        2.80615512       3.24026883      10.00000000        3       1.00000000       0.00000000       0.00000000       0.00000000       0.00000000       0.00000000       0.00000000
H        0.00000000       1.62013441      12.29121606        2       1.00000000       0.00000000       0.00000000       0.00000000       0.00000000       0.00000000       0.00000000
H        2.80615512       1.62013441      12.29121606        2       1.00000000       0.00000000       0.00000000       0.00000000       0.00000000       0.00000000       0.00000000
H        1.40307756       4.05033604      12.29121606        2       1.00000000       0.00000000       0.00000000       0.00000000       0.00000000       0.00000000       0.00000000
H        4.20923268       4.05033604      12.29121606        2       1.00000000       0.00000000       0.00000000       0.00000000       0.00000000       0.00000000       0.00000000
H        0.00000000       0.00000000      14.58243212        1       1.00000000       0.00000000       0.00000000       0.00000000       0.00000000       0.00000000       0.00000000
H        2.80615512       0.00000000      14.58243212        1       1.00000000       0.00000000       0.00000000       0.00000000       0.00000000       0.00000000       0.00000000
H        1.40307756       2.43020162      14.58243212        1       1.00000000       0.00000000       0.00000000       0.00000000       0.00000000       0.00000000       0.00000000
H        4.20923268       2.43020162      14.58243212        1       1.00000000       0.00000000       0.00000000       0.00000000       0.00000000       0.00000000       0.00000000
H        1.39315380       0.81021367      16.81077085        0       1.00000000      -0.00000026       0.00000061       0.00000109       0.00000084      -0.00000054      -0.00000074
H        4.20923230       4.05033667       7.77136731        0       1.00000000       0.00000049       0.00000003      -0.00000031       0.00000099      -0.00000015       0.00000087
H        2.81607932       3.24041510      16.81077084        0       1.00000000       0.00000180      -0.00000026       0.00000091      -0.00000027      -0.00000058      -0.00000129
H        2.80615473       1.62013413       7.77136711        0       1.00000000       0.00000036       0.00000074       0.00000014       0.00000065       0.00000067      -0.00000095
H        1.40307734       4.05033626       7.77136677        0       1.00000000       0.00000036      -0.00000071      -0.00000042      -0.00000062      -0.00000183       0.00000156
H        5.61231027       1.62013513       7.77136638        0       1.00000000       0.00000020      -0.00000024      -0.00000007      -0.00000103       0.00000058       0.00000048
18
Lattice="5.612310241546866 0.0 0.0 0.0 4.860403243099165 0.0 0.0 0.0 24.582432123328676" Properties=species:S:1:pos:R:3:tags:I:1:masses:R:1:momenta:R:3:forces:R:3 KEmax=23.26679191048647 iter=229679 volume=670.5618179858607 ns_energy=-11.637341369250537 last_walked_iter_clone=229669 energy=-11.637341369254255 stress="0.02259286376482595 -2.4930511220219986e-09 -5.154290211922431e-09 -2.4930511220219986e-09 0.02270719521421043 7.062499059890425e-09 -5.154290211922431e-09 7.062499059890425e-09 0.012329802105165986" pbc="T T F"
H        1.40307756       0.81006721      10.00000000        3       1.00000000       0.00000000       0.00000000       0.00000000       0.00000000       0.00000000       0.00000000
H        4.20923268       0.81006721      10.00000000        3       1.00000000       0.00000000       0.00000000       0.00000000       0.00000000       0.00000000       0.00000000
H        0.00000000       3.24026883      10.00000000        3       1.00000000       0.00000000       0.00000000       0.00000000       0.00000000       0.00000000       0.00000000
H        2.80615512       3.24026883      10.00000000        3       1.00000000       0.00000000       0.00000000       0.00000000       0.00000000       0.00000000       0.00000000
H        0.00000000       1.62013441      12.29121606        2       1.00000000       0.00000000       0.00000000       0.00000000       0.00000000       0.00000000       0.00000000
H        2.80615512       1.62013441      12.29121606        2       1.00000000       0.00000000       0.00000000       0.00000000       0.00000000       0.00000000       0.00000000
H        1.40307756       4.05033604      12.29121606        2       1.00000000       0.00000000       0.00000000       0.00000000       0.00000000       0.00000000       0.00000000
H        4.20923268       4.05033604      12.29121606        2       1.00000000       0.00000000       0.00000000       0.00000000       0.00000000       0.00000000       0.00000000
H        0.00000000       0.00000000      14.58243212        1       1.00000000       0.00000000       0.00000000       0.00000000       0.00000000       0.00000000       0.00000000
H        2.80615512       0.00000000      14.58243212        1       1.00000000       0.00000000       0.00000000       0.00000000       0.00000000       0.00000000       0.00000000
H        1.40307756       2.43020162      14.58243212        1       1.00000000       0.00000000       0.00000000       0.00000000       0.00000000       0.00000000       0.00000000
H        4.20923268       2.43020162      14.58243212        1       1.00000000       0.00000000       0.00000000       0.00000000       0.00000000       0.00000000       0.00000000
H        1.39315461       0.81021370      16.81077040        0       1.00000000      -0.00000038      -0.00000020       0.00000119       0.00000084      -0.00000054      -0.00000074
H        4.20923275       4.05033605       7.77136756        0       1.00000000       0.00000003      -0.00000007       0.00000008       0.00000099      -0.00000015       0.00000087
H        2.81607954       3.24041572      16.81076988        0       1.00000000       0.00000142      -0.00000048      -0.00000028      -0.00000027      -0.00000058      -0.00000129
H        2.80615482       1.62013455       7.77136721        0       1.00000000      -0.00000011       0.00000037      -0.00000059       0.00000065       0.00000067      -0.00000095
H        1.40307780       4.05033571       7.77136730        0       1.00000000       0.00000050       0.00000156       0.00000052      -0.00000062      -0.00000183       0.00000156
H        5.61231082       1.62013442       7.77136732        0       1.00000000       0.00000047      -0.00000039       0.00000069      -0.00000103       0.00000058       0.00000048
18
Lattice="5.612310241546866 0.0 0.0 0.0 4.860403243099165 0.0 0.0 0.0 24.582432123328676" Properties=species:S:1:pos:R:3:tags:I:1:masses:R:1:momenta:R:3:forces:R:3 KEmax=23.26679191048647 iter=229679 volume=670.5618179858607 ns_energy=-11.637341369250477 last_walked_iter_clone=229293 energy=-11.637341369254255 stress="0.02259286376482595 -2.4930511220219986e-09 -5.154290211922431e-09 -2.4930511220219986e-09 0.02270719521421043 7.062499059890425e-09 -5.154290211922431e-09 7.062499059890425e-09 0.012329802105165986" pbc="T T F"
H        1.40307756       0.81006721      10.00000000        3       1.00000000       0.00000000       0.00000000       0.00000000       0.00000000       0.00000000       0.00000000
H        4.20923268       0.81006721      10.00000000        3       1.00000000       0.00000000       0.00000000       0.00000000       0.00000000       0.00000000       0.00000000
H        0.00000000       3.24026883      10.00000000        3       1.00000000       0.00000000       0.00000000       0.00000000       0.00000000       0.00000000       0.00000000
H        2.80615512       3.24026883      10.00000000        3       1.00000000       0.00000000       0.00000000       0.00000000       0.00000000       0.00000000       0.00000000
H        0.00000000       1.62013441      12.29121606        2       1.00000000       0.00000000       0.00000000       0.00000000       0.00000000       0.00000000       0.00000000
H        2.80615512       1.62013441      12.29121606        2       1.00000000       0.00000000       0.00000000       0.00000000       0.00000000       0.00000000       0.00000000
H        1.40307756       4.05033604      12.29121606        2       1.00000000       0.00000000       0.00000000       0.00000000       0.00000000       0.00000000       0.00000000
H        4.20923268       4.05033604      12.29121606        2       1.00000000       0.00000000       0.00000000       0.00000000       0.00000000       0.00000000       0.00000000
H        0.00000000       0.00000000      14.58243212        1       1.00000000       0.00000000       0.00000000       0.00000000       0.00000000       0.00000000       0.00000000
H        2.80615512       0.00000000      14.58243212        1       1.00000000       0.00000000       0.00000000       0.00000000       0.00000000       0.00000000       0.00000000
H        1.40307756       2.43020162      14.58243212        1       1.00000000       0.00000000       0.00000000       0.00000000       0.00000000       0.00000000       0.00000000
H        4.20923268       2.43020162      14.58243212        1       1.00000000       0.00000000       0.00000000       0.00000000       0.00000000       0.00000000       0.00000000
H        1.39315472       0.81021367      16.81077024        0       1.00000000       0.00000104      -0.00000048      -0.00000057       0.00000084      -0.00000054      -0.00000074
H        4.20923241       4.05033602       7.77136728        0       1.00000000      -0.00000067      -0.00000076      -0.00000072       0.00000099      -0.00000015       0.00000087
H        2.81607936       3.24041490      16.81077038        0       1.00000000       0.00000007       0.00000101      -0.00000076      -0.00000027      -0.00000058      -0.00000129
H        2.80615491       1.62013438       7.77136760        0       1.00000000      -0.00000046      -0.00000029      -0.00000071       0.00000065       0.00000067      -0.00000095
H        1.40307766       4.05033626       7.77136719        0       1.00000000      -0.00000041      -0.00000071      -0.00000012      -0.00000062      -0.00000183       0.00000156
H       -0.00000026       1.62013434       7.77136763        0       1.00000000       0.00000041       0.00000189       0.00000044      -0.00000103       0.00000058       0.00000048
18
Lattice="5.612310241546866 0.0 0.0 0.0 4.860403243099165 0.0 0.0 0.0 24.582432123328676" Properties=species:S:1:pos:R:3:tags:I:1:masses:R:1:momenta:R:3:forces:R:3 KEmax=23.26679191048647 iter=229679 volume=670.5618179858607 ns_energy=-11.637341369250432 last_walked_iter_clone=227863 energy=-11.637341369254255 stress="0.02259286376482595 -2.4930511220219986e-09 -5.154290211922431e-09 -2.4930511220219986e-09 0.02270719521421043 7.062499059890425e-09 -5.154290211922431e-09 7.062499059890425e-09 0.012329802105165986" pbc="T T F"
H        1.40307756       0.81006721      10.00000000        3       1.00000000       0.00000000       0.00000000       0.00000000       0.00000000       0.00000000       0.00000000
H        4.20923268       0.81006721      10.00000000        3       1.00000000       0.00000000       0.00000000       0.00000000       0.00000000       0.00000000       0.00000000
H        0.00000000       3.24026883      10.00000000        3       1.00000000       0.00000000       0.00000000       0.00000000       0.00000000       0.00000000       0.00000000
H        2.80615512       3.24026883      10.00000000        3       1.00000000       0.00000000       0.00000000       0.00000000       0.00000000       0.00000000       0.00000000
H        0.00000000       1.62013441      12.29121606        2       1.00000000       0.00000000       0.00000000       0.00000000       0.00000000       0.00000000       0.00000000
H        2.80615512       1.62013441      12.29121606        2       1.00000000       0.00000000       0.00000000       0.00000000       0.00000000       0.00000000       0.00000000
H        1.40307756       4.05033604      12.29121606        2       1.00000000       0.00000000       0.00000000       0.00000000       0.00000000       0.00000000       0.00000000
H        4.20923268       4.05033604      12.29121606        2       1.00000000       0.00000000       0.00000000       0.00000000       0.00000000       0.00000000       0.00000000
H        0.00000000       0.00000000      14.58243212        1       1.00000000       0.00000000       0.00000000       0.00000000       0.00000000       0.00000000       0.00000000
H        2.80615512       0.00000000      14.58243212        1       1.00000000       0.00000000       0.00000000       0.00000000       0.00000000       0.00000000       0.00000000
H        1.40307756       2.43020162      14.58243212        1       1.00000000       0.00000000       0.00000000       0.00000000       0.00000000       0.00000000       0.00000000
H        4.20923268       2.43020162      14.58243212        1       1.00000000       0.00000000       0.00000000       0.00000000       0.00000000       0.00000000       0.00000000
H        1.39315472       0.81021367      16.81077024        0       1.00000000       0.00000078       0.00000081      -0.00000110       0.00000084      -0.00000054      -0.00000074
H        4.20923241       4.05033602       7.77136728        0       1.00000000      -0.00000095      -0.00000186       0.00000024       0.00000099      -0.00000015       0.00000087
H        2.81607936       3.24041490      16.81077038        0       1.00000000       0.00000005       0.00000018      -0.00000032      -0.00000027      -0.00000058      -0.00000129
H        2.80615491       1.62013438       7.77136760        0       1.00000000      -0.00000075      -0.00000049      -0.00000046       0.00000065       0.00000067      -0.00000095
H        1.40307766       4.05033626       7.77136719        0       1.00000000       0.00000036      -0.00000040      -0.00000020      -0.00000062      -0.00000183       0.00000156
H       -0.00000026       1.62013434       7.77136763        0       1.00000000       0.00000079       0.00000116      -0.00000044      -0.00000103       0.00000058       0.00000048
18
Lattice="5.612310241546866 0.0 0.0 0.0 4.860403243099165 0.0 0.0 0.0 24.582432123328676" Properties=species:S:1:pos:R:3:tags:I:1:masses:R:1:momenta:R:3:forces:R:3 KEmax=23.26679191048647 iter=229679 volume=670.5618179858607 ns_energy=-11.637341369250443 last_walked_iter_clone=228354 energy=-11.637341369254255 stress="0.02259286376482595 -2.4930511220219986e-09 -5.154290211922431e-09 -2.4930511220219986e-09 0.02270719521421043 7.062499059890425e-09 -5.154290211922431e-09 7.062499059890425e-09 0.012329802105165986" pbc="T T F"
H        1.40307756       0.81006721      10.00000000        3       1.00000000       0.00000000       0.00000000       0.00000000       0.00000000       0.00000000       0.00000000
H        4.20923268       0.81006721      10.00000000        3       1.00000000       0.00000000       0.00000000       0.00000000       0.00000000       0.00000000       0.00000000
H        0.00000000       3.24026883      10.00000000        3       1.00000000       0.00000000       0.00000000       0.00000000       0.00000000       0.00000000       0.00000000
H        2.80615512       3.24026883      10.00000000        3       1.00000000       0.00000000       0.00000000       0.00000000       0.00000000       0.00000000       0.00000000
H        0.00000000       1.62013441      12.29121606        2       1.00000000       0.00000000       0.00000000       0.00000000       0.00000000       0.00000000       0.00000000
H        2.80615512       1.62013441      12.29121606        2       1.00000000       0.00000000       0.00000000       0.00000000       0.00000000       0.00000000       0.00000000
H        1.40307756       4.05033604      12.29121606        2       1.00000000       0.00000000       0.00000000       0.00000000       0.00000000       0.00000000       0.00000000
H        4.20923268       4.05033604      12.29121606        2       1.00000000       0.00000000       0.00000000       0.00000000       0.00000000       0.00000000       0.00000000
H        0.00000000       0.00000000      14.58243212        1       1.00000000       0.00000000       0.00000000       0.00000000       0.00000000       0.00000000       0.00000000
H        2.80615512       0.00000000      14.58243212        1       1.00000000       0.00000000       0.00000000       0.00000000       0.00000000       0.00000000       0.00000000
H        1.40307756       2.43020162      14.58243212        1       1.00000000       0.00000000       0.00000000       0.00000000       0.00000000       0.00000000       0.00000000
H        4.20923268       2.43020162      14.58243212        1       1.00000000       0.00000000       0.00000000       0.00000000       0.00000000       0.00000000       0.00000000
H        1.39315477       0.81021385      16.81077068        0       1.00000000       0.00000017      -0.00000017       0.00000009       0.00000084      -0.00000054      -0.00000074
H        4.20923304       4.05033531       7.77136752        0       1.00000000       0.00000064      -0.00000088       0.00000028       0.00000099      -0.00000015       0.00000087
H        2.81607885       3.24041556      16.81077029        0       1.00000000      -0.00000133       0.00000002      -0.00000054      -0.00000027      -0.00000058      -0.00000129
H        2.80615491       1.62013407       7.77136739        0       1.00000000      -0.00000082      -0.00000047       0.00000002       0.00000065       0.00000067      -0.00000095
H        1.40307764       4.05033581       7.77136699        0       1.00000000       0.00000007       0.00000071       0.00000150      -0.00000062      -0.00000183       0.00000156
H        5.61231058       1.62013372       7.77136745        0       1.00000000      -0.00000152       0.00000058       0.00000038      -0.00000103       0.00000058       0.00000048
18
Lattice="5.612310241546866 0.0 0.0 0.0 4.860403243099165 0.0 0.0 0.0 24.582432123328676" Properties=species:S:1:pos:R:3:tags:I:1:masses:R:1:momenta:R:3:forces:R:3 KEmax=23.26679191048647 iter=229679 volume=670.5618179858607 ns_energy=-11.637341369250542 last_walked_iter_clone=225181 energy=-11.637341369254255 stress="0.02259286376482595 -2.4930511220219986e-09 -5.154290211922431e-09 -2.4930511220219986e-09 0.02270719521421043 7.062499059890425e-09 -5.154290211922431e-09 7.062499059890425e-09 0.012329802105165986" pbc="T T F"
H        1.40307756       0.81006721      10.00000000        3       1.00000000       0.00000000       0.00000000       0.00000000       0.00000000       0.00000000       0.00000000
H        4.20923268       0.81006721      10.00000000        3       1.00000000       0.00000000       0.00000000       0.00000000       0.00000000       0.00000000       0.00000000
H        0.00000000       3.24026883      10.00000000        3       1.00000000       0.00000000       0.00000000       0.00000000       0.00000000       0.00000000       0.00000000
H        2.80615512       3.24026883      10.00000000        3       1.00000000       0.00000000       0.00000000       0.00000000       0.00000000       0.00000000       0.00000000
H        0.00000000       1.62013441      12.29121606        2       1.00000000       0.00000000       0.00000000       0.00000000       0.00000000       0.00000000       0.00000000
H        2.80615512       1.62013441      12.29121606        2       1.00000000       0.00000000       0.00000000       0.00000000       0.00000000       0.00000000       0.00000000
H        1.40307756       4.05033604      12.29121606        2       1.00000000       0.00000000       0.00000000       0.00000000       0.00000000       0.00000000       0.00000000
H        4.20923268       4.05033604      12.29121606        2       1.00000000       0.00000000       0.00000000       0.00000000       0.00000000       0.00000000       0.00000000
H        0.00000000       0.00000000      14.58243212        1       1.00000000       0.00000000       0.00000000       0.00000000       0.00000000       0.00000000       0.00000000
H        2.80615512       0.00000000      14.58243212        1       1.00000000       0.00000000       0.00000000       0.00000000       0.00000000       0.00000000       0.00000000
H        1.40307756       2.43020162      14.58243212        1       1.00000000       0.00000000       0.00000000       0.00000000       0.00000000       0.00000000       0.00000000
H        4.20923268       2.43020162      14.58243212        1       1.00000000       0.00000000       0.00000000       0.00000000       0.00000000       0.00000000       0.00000000
H        1.39315421       0.81021392      16.81077028        0       1.00000000       0.00000025      -0.00000095      -0.00000146       0.00000084      -0.00000054      -0.00000074
H        4.20923323       4.05033584       7.77136728        0       1.00000000       0.00000021      -0.00000054      -0.00000030       0.00000099      -0.00000015       0.00000087
H        2.81607870       3.24041631      16.81077057        0       1.00000000       0.00000041       0.00000161       0.00000041      -0.00000027      -0.00000058      -0.00000129
H        2.80615549       1.62013459       7.77136754        0       1.00000000       0.00000088      -0.00000041       0.00000036       0.00000065       0.00000067      -0.00000095
H        1.40307824       4.05033585       7.77136715        0       1.00000000      -0.00000113      -0.00000063      -0.00000001      -0.00000062      -0.00000183       0.00000156
H        0.00000000       1.62013435       7.77136706        0       1.00000000       0.00000085       0.00000037      -0.00000019      -0.00000103       0.00000058       0.00000048
18
Lattice="5.612310241546866 0.0 0.0 0.0 4.860403243099165 0.0 0.0 0.0 24.582432123328676" Properties=species:S:1:pos:R:3:tags:I:1:masses:R:1:momenta:R:3:forces:R:3 KEmax=23.26679191048647 iter=229679 volume=670.5618179858607 ns_energy=-11.637341369250473 last_walked_iter_clone=225018 energy=-11.637341369254255 stress="0.02259286376482595 -2.4930511220219986e-09 -5.154290211922431e-09 -2.4930511220219986e-09 0.02270719521421043 7.062499059890425e-09 -5.154290211922431e-09 7.062499059890425e-09 0.012329802105165986" pbc="T T F"
H        1.40307756       0.81006721      10.00000000        3       1.00000000       0.00000000       0.00000000       0.00000000       0.00000000       0.00000000       0.00000000
H        4.20923268       0.81006721      10.00000000        3       1.00000000       0.00000000       0.00000000       0.00000000       0.00000000       0.00000000       0.00000000
H        0.00000000       3.24026883      10.00000000        3       1.00000000       0.00000000       0.00000000       0.00000000       0.00000000       0.00000000       0.00000000
H        2.80615512       3.24026883      10.00000000        3       1.00000000       0.00000000       0.00000000       0.00000000       0.00000000       0.00000000       0.00000000
H        0.00000000       1.62013441      12.29121606        2       1.00000000       0.00000000       0.00000000       0.00000000       0.00000000       0.00000000       0.00000000
H        2.80615512       1.62013441      12.29121606        2       1.00000000       0.00000000       0.00000000       0.00000000       0.00000000       0.00000000       0.00000000
H        1.40307756       4.05033604      12.29121606        2       1.00000000       0.00000000       0.00000000       0.00000000       0.00000000       0.00000000       0.00000000
H        4.20923268       4.05033604      12.29121606        2       1.00000000       0.00000000       0.00000000       0.00000000       0.00000000       0.00000000       0.00000000
H        0.00000000       0.00000000      14.58243212        1       1.00000000       0.00000000       0.00000000       0.00000000       0.00000000       0.00000000       0.00000000
H        2.80615512       0.00000000      14.58243212        1       1.00000000       0.00000000       0.00000000       0.00000000       0.00000000       0.00000000       0.00000000
H        1.40307756       2.43020162      14.58243212        1       1.00000000       0.00000000       0.00000000       0.00000000       0.00000000       0.00000000       0.00000000
H        4.20923268       2.43020162      14.58243212        1       1.00000000       0.00000000       0.00000000       0.00000000       0.00000000       0.00000000       0.00000000
H        1.39315456       0.81021421      16.81077061        0       1.00000000       0.00000023      -0.00000021       0.00000021       0.00000084      -0.00000054      -0.00000074
H        4.20923288       4.05033551       7.77136722        0       1.00000000       0.00000081      -0.00000040      -0.00000018       0.00000099      -0.00000015       0.00000087
H        2.81607848       3.24041529      16.81077055        0       1.00000000      -0.00000139      -0.00000021       0.00000026      -0.00000027      -0.00000058      -0.00000129
H        2.80615452       1.62013420       7.77136764        0       1.00000000      -0.00000079      -0.00000025       0.00000076       0.00000065       0.00000067      -0.00000095
H        1.40307755       4.05033551       7.77136705        0       1.00000000      -0.00000071       0.00000044       0.00000161      -0.00000062      -0.00000183       0.00000156
H        0.00000018       1.62013360       7.77136726        0       1.00000000      -0.00000087       0.00000079      -0.00000000      -0.00000103       0.00000058       0.00000048
18
Lattice="5.612310241546866 0.0 0.0 0.0 4.860403243099165 0.0 0.0 0.0 24.582432123328676" Properties=species:S:1:pos:R:3:tags:I:1:masses:R:1:momenta:R:3:forces:R:3 KEmax=23.26679191048647 iter=229679 volume=670.5618179858607 ns_energy=-11.637341369250407 last_walked_iter_clone=229609 energy=-11.637341369254255 stress="0.02259286376482595 -2.4930511220219986e-09 -5.154290211922431e-09 -2.4930511220219986e-09 0.02270719521421043 7.062499059890425e-09 -5.154290211922431e-09 7.062499059890425e-09 0.012329802105165986" pbc="T T F"
H        1.40307756       0.81006721      10.00000000        3       1.00000000       0.00000000       0.00000000       0.00000000       0.00000000       0.00000000       0.00000000
H        4.20923268       0.81006721      10.00000000        3       1.00000000       0.00000000       0.00000000       0.00000000       0.00000000       0.00000000       0.00000000
H        0.00000000       3.24026883      10.00000000        3       1.00000000       0.00000000       0.00000000       0.00000000       0.00000000       0.00000000       0.00000000
H        2.80615512       3.24026883      10.00000000        3       1.00000000       0.00000000       0.00000000       0.00000000       0.00000000       0.00000000       0.00000000
H        0.00000000       1.62013441      12.29121606        2       1.00000000       0.00000000       0.00000000       0.00000000       0.00000000       0.00000000       0.00000000
H        2.80615512       1.62013441      12.29121606        2       1.00000000       0.00000000       0.00000000       0.00000000       0.00000000       0.00000000       0.00000000
H        1.40307756       4.05033604      12.29121606        2       1.00000000       0.00000000       0.00000000       0.00000000       0.00000000       0.00000000       0.00000000
H        4.20923268       4.05033604      12.29121606        2       1.00000000       0.00000000       0.00000000       0.00000000       0.00000000       0.00000000       0.00000000
H        0.00000000       0.00000000      14.58243212        1       1.00000000       0.00000000       0.00000000       0.00000000       0.00000000       0.00000000       0.00000000
H        2.80615512       0.00000000      14.58243212        1       1.00000000       0.00000000       0.00000000       0.00000000       0.00000000       0.00000000       0.00000000
H        1.40307756       2.43020162      14.58243212        1       1.00000000       0.00000000       0.00000000       0.00000000       0.00000000       0.00000000       0.00000000
H        4.20923268       2.43020162      14.58243212        1       1.00000000       0.00000000       0.00000000       0.00000000       0.00000000       0.00000000       0.00000000
H        1.39315214       0.81021377      16.81077074        0       1.00000000       0.00000051       0.00000097      -0.00000058       0.00000084      -0.00000054      -0.00000074
H        4.20923309       4.05033563       7.77136690        0       1.00000000       0.00000021      -0.00000029      -0.00000013       0.00000099      -0.00000015       0.00000087
H        2.81607817       3.24041596      16.81077020        0       1.00000000      -0.00000040      -0.00000004       0.00000055      -0.00000027      -0.00000058      -0.00000129