18
Lattice="5.612310241546866 0.0 0.0 0.0 4.860403243099165 0.0 0.0 0.0 24.582432123328676" Properties=species:S:1:pos:R:3:tags:I:1:masses:R:1:momenta:R:3:forces:R:3 KEmax=23.26679191048647 iter=150223 volume=670.5618179858607 ns_energy=-11.637341367746458 last_walked_iter_clone=150214 energy=-11.637341368163904 stress="0.022592945666388958 -2.824522043579715e-08 -2.0368876408928868e-08 -2.824522043579715e-08 0.022707420147638074 -1.0082151471503422e-07 -2.0368876408928868e-08 -1.0082151471503422e-07 0.01233057124930755" pbc="T T F"
H        1.40307756       0.81006721      10.00000000        3       1.00000000       0.00000000       0.00000000       0.00000000       0.00000000       0.00000000       0.00000000
H        4.20923268       0.81006721      10.00000000        3       1.00000000       0.00000000       0.00000000       0.00000000       0.00000000       0.00000000       0.00000000
H        0.00000000       3.24026883      10.00000000        3       1.00000000       0.00000000       0.00000000       0.00000000       0.00000000       0.00000000       0.00000000
H        2.80615512       3.24026883      10.00000000        3       1.00000000       0.00000000       0.00000000       0.00000000       0.00000000       0.00000000       0.00000000
H        0.00000000       1.62013441      12.29121606        2       1.00000000       0.00000000       0.00000000       0.00000000       0.00000000       0.00000000       0.00000000
H        2.80615512       1.62013441      12.29121606        2       1.00000000       0.00000000       0.00000000       0.00000000       0.00000000       0.00000000       0.00000000
H        1.40307756       4.05033604      12.29121606        2       1.00000000       0.00000000       0.00000000       0.00000000       0.00000000       0.00000000       0.00000000
H        4.20923268       4.05033604      12.29121606        2       1.00000000       0.00000000       0.00000000       0.00000000       0.00000000       0.00000000       0.00000000
H        0.00000000       0.00000000      14.58243212        1       1.00000000       0.00000000       0.00000000       0.00000000       0.00000000       0.00000000       0.00000000
H        2.80615512       0.00000000      14.58243212        1       1.00000000       0.00000000       0.00000000       0.00000000       0.00000000       0.00000000       0.00000000
H        1.40307756       2.43020162      14.58243212        1       1.00000000       0.00000000       0.00000000       0.00000000       0.00000000       0.00000000       0.00000000
H        4.20923268       2.43020162      14.58243212        1       1.00000000       0.00000000       0.00000000       0.00000000       0.00000000       0.00000000       0.00000000
H        1.39314659       0.81020261      16.81078382        0       1.00000000      -0.00000833      -0.00001563       0.00000301      -0.00000332      -0.00000715      -0.00000570
H        4.20924339       4.05034081       7.77137726        0       1.00000000       0.00000821      -0.00000139      -0.00000317      -0.00002404       0.00000273       0.00003541
H        2.81607017       3.24041746      16.81076089        0       1.00000000      -0.00000765       0.00000524       0.00001125       0.00000017       0.00002073      -0.00003425
H        2.80615617       1.62013020       7.77136758        0       1.00000000       0.00000828       0.00000092       0.00000561       0.00000091      -0.00000183      -0.00000942
H        1.40308564       4.05033076       7.77137267        0       1.00000000       0.00000734       0.00000628      -0.00000647       0.00004079       0.00000520       0.00000334
H        5.61230823       1.62014261       7.77136671        0       1.00000000       0.00000209      -0.00000127      -0.00000499      -0.00002306      -0.00000405       0.00002262
18
Lattice="5.612310241546866 0.0 0.0 0.0 4.860403243099165 0.0 0.0 0.0 24.582432123328676" Properties=species:S:1:pos:R:3:tags:I:1:masses:R:1:momenta:R:3:forces:R:3 KEmax=23.26679191048647 iter=150223 volume=670.5618179858607 ns_energy=-11.637341367775601 last_walked_iter_clone=150106 energy=-11.637341368163904 stress="0.022592945666388958 -2.824522043579715e-08 -2.0368876408928868e-08 -2.824522043579715e-08 0.022707420147638074 -1.0082151471503422e-07 -2.0368876408928868e-08 -1.0082151471503422e-07 0.01233057124930755" pbc="T T F"
H        1.40307756       0.81006721      10.00000000        3       1.00000000       0.00000000       0.00000000       0.00000000       0.00000000       0.00000000       0.00000000
H        4.20923268       0.81006721      10.00000000        3       1.00000000       0.00000000       0.00000000       0.00000000       0.00000000       0.00000000       0.00000000
H        0.00000000       3.24026883      10.00000000        3       1.00000000       0.00000000       0.00000000       0.00000000       0.00000000       0.00000000       0.00000000
H        2.80615512       3.24026883      10.00000000        3       1.00000000       0.00000000       0.00000000       0.00000000       0.00000000       0.00000000       0.00000000
H        0.00000000       1.62013441      12.29121606        2       1.00000000       0.00000000       0.00000000       0.00000000       0.00000000       0.00000000       0.00000000
H        2.80615512       1.62013441      12.29121606        2       1.00000000       0.00000000       0.00000000       0.00000000       0.00000000       0.00000000       0.00000000
H        1.40307756       4.05033604      12.29121606        2       1.00000000       0.00000000       0.00000000       0.00000000       0.00000000       0.00000000       0.00000000
H        4.20923268       4.05033604      12.29121606        2       1.00000000       0.00000000       0.00000000       0.00000000       0.00000000       0.00000000       0.00000000
H        0.00000000       0.00000000      14.58243212        1       1.00000000       0.00000000       0.00000000       0.00000000       0.00000000       0.00000000       0.00000000
H        2.80615512       0.00000000      14.58243212        1       1.00000000       0.00000000       0.00000000       0.00000000       0.00000000       0.00000000       0.00000000
H        1.40307756       2.43020162      14.58243212        1       1.00000000       0.00000000       0.00000000       0.00000000       0.00000000       0.00000000       0.00000000
H        4.20923268       2.43020162      14.58243212        1       1.00000000       0.00000000       0.00000000       0.00000000       0.00000000       0.00000000       0.00000000
H        1.39315571       0.81022330      16.81077223        0       1.00000000       0.00000130      -0.00000427      -0.00000615      -0.00000332      -0.00000715      -0.00000570
H        4.20923299       4.05032926       7.77136405        0       1.00000000      -0.00001557      -0.00001286      -0.00000344      -0.00002404       0.00000273       0.00003541
H        2.81608868       3.24042310      16.81076713        0       1.00000000       0.00000448       0.00001258      -0.00000039       0.00000017       0.00002073      -0.00003425
H        2.80615776       1.62013290       7.77138330        0       1.00000000       0.00000784       0.00000002      -0.00000361       0.00000091      -0.00000183      -0.00000942
H        1.40307873       4.05034245       7.77137519        0       1.00000000       0.00001512      -0.00000041      -0.00001350       0.00004079       0.00000520       0.00000334
H        5.61231220       1.62013651       7.77136726        0       1.00000000      -0.00001736      -0.00001062       0.00000451      -0.00002306      -0.00000405       0.00002262
18
Lattice="5.612310241546866 0.0 0.0 0.0 4.860403243099165 0.0 0.0 0.0 24.582432123328676" Properties=species:S:1:pos:R:3:tags:I:1:masses:R:1:momenta:R:3:forces:R:3 KEmax=23.26679191048647 iter=150223 volume=670.5618179858607 ns_energy=-11.637341367736477 last_walked_iter_clone=150030 energy=-11.637341368163904 stress="0.022592945666388958 -2.824522043579715e-08 -2.0368876408928868e-08 -2.824522043579715e-08 0.022707420147638074 -1.0082151471503422e-07 -2.0368876408928868e-08 -1.0082151471503422e-07 0.01233057124930755" pbc="T T F"
H        1.40307756       0.81006721      10.00000000        3       1.00000000       0.00000000       0.00000000       0.00000000       0.00000000       0.00000000       0.00000000
H        4.20923268       0.81006721      10.00000000        3       1.00000000       0.00000000       0.00000000       0.00000000       0.00000000       0.00000000       0.00000000
H        0.00000000       3.24026883      10.00000000        3       1.00000000       0.00000000       0.00000000       0.00000000       0.00000000       0.00000000       0.00000000
H        2.80615512       3.24026883      10.00000000        3       1.00000000       0.00000000       0.00000000       0.00000000       0.00000000       0.00000000       0.00000000
H        0.00000000       1.62013441      12.29121606        2       1.00000000       0.00000000       0.00000000       0.00000000       0.00000000       0.00000000       0.00000000
H        2.80615512       1.62013441      12.29121606        2       1.00000000       0.00000000       0.00000000       0.00000000       0.00000000       0.00000000       0.00000000
H        1.40307756       4.05033604      12.29121606        2       1.00000000       0.00000000       0.00000000       0.00000000       0.00000000       0.00000000       0.00000000
H        4.20923268       4.05033604      12.29121606        2       1.00000000       0.00000000       0.00000000       0.00000000       0.00000000       0.00000000       0.00000000
H        0.00000000       0.00000000      14.58243212        1       1.00000000       0.00000000       0.00000000       0.00000000       0.00000000       0.00000000       0.00000000
H        2.80615512       0.00000000      14.58243212        1       1.00000000       0.00000000       0.00000000       0.00000000       0.00000000       0.00000000       0.00000000
H        1.40307756       2.43020162      14.58243212        1       1.00000000       0.00000000       0.00000000       0.00000000       0.00000000       0.00000000       0.00000000
H        4.20923268       2.43020162      14.58243212        1       1.00000000       0.00000000       0.00000000       0.00000000       0.00000000       0.00000000       0.00000000
H        1.39313351       0.81020051      16.81077683        0       1.00000000      -0.00000327       0.00000035       0.00000549      -0.00000332      -0.00000715      -0.00000570
H        4.20923692       4.05035161       7.77136765        0       1.00000000       0.00000241      -0.00000442       0.00000749      -0.00002404       0.00000273       0.00003541
H        2.81608564       3.24041478      16.81076775        0       1.00000000      -0.00000584       0.00001292      -0.00000408       0.00000017       0.00002073      -0.00003425
H        2.80615700       1.62014787       7.77136657        0       1.00000000      -0.00000714      -0.00001238       0.00001439       0.00000091      -0.00000183      -0.00000942
H        1.40308634       4.05034614       7.77136818        0       1.00000000      -0.00000064       0.00000038      -0.00001030       0.00004079       0.00000520       0.00000334
H        0.00000635       1.62014128       7.77137209        0       1.00000000      -0.00000340       0.00001472       0.00001518      -0.00002306      -0.00000405       0.00002262
18
Lattice="5.612310241546866 0.0 0.0 0.0 4.860403243099165 0.0 0.0 0.0 24.582432123328676" Properties=species:S:1:pos:R:3:tags:I:1:masses:R:1:momenta:R:3:forces:R:3 KEmax=23.26679191048647 iter=150223 volume=670.5618179858607 ns_energy=-11.63734136785888 last_walked_iter_clone=150071 energy=-11.637341368163904 stress="0.022592945666388958 -2.824522043579715e-08 -2.0368876408928868e-08 -2.824522043579715e-08 0.022707420147638074 -1.0082151471503422e-07 -2.0368876408928868e-08 -1.0082151471503422e-07 0.01233057124930755" pbc="T T F"
H        1.40307756       0.81006721      10.00000000        3       1.00000000       0.00000000       0.00000000       0.00000000       0.00000000       0.00000000       0.00000000
H        4.20923268       0.81006721      10.00000000        3       1.00000000       0.00000000       0.00000000       0.00000000       0.00000000       0.00000000       0.00000000
H        0.00000000       3.24026883      10.00000000        3       1.00000000       0.00000000       0.00000000       0.00000000       0.00000000       0.00000000       0.00000000
H        2.80615512       3.24026883      10.00000000        3       1.00000000       0.00000000       0.00000000       0.00000000       0.00000000       0.00000000       0.00000000
H        0.00000000       1.62013441      12.29121606        2       1.00000000       0.00000000       0.00000000       0.00000000       0.00000000       0.00000000       0.00000000
H        2.80615512       1.62013441      12.29121606        2       1.00000000       0.00000000       0.00000000       0.00000000       0.00000000       0.00000000       0.00000000
H        1.40307756       4.05033604      12.29121606        2       1.00000000       0.00000000       0.00000000       0.00000000       0.00000000       0.00000000       0.00000000
H        4.20923268       4.05033604      12.29121606        2       1.00000000       0.00000000       0.00000000       0.00000000       0.00000000       0.00000000       0.00000000
H        0.00000000       0.00000000      14.58243212        1       1.00000000       0.00000000       0.00000000       0.00000000       0.00000000       0.00000000       0.00000000
H        2.80615512       0.00000000      14.58243212        1       1.00000000       0.00000000       0.00000000       0.00000000       0.00000000       0.00000000       0.00000000
H        1.40307756       2.43020162      14.58243212        1       1.00000000       0.00000000       0.00000000       0.00000000       0.00000000       0.00000000       0.00000000
H        4.20923268       2.43020162      14.58243212        1       1.00000000       0.00000000       0.00000000       0.00000000       0.00000000       0.00000000       0.00000000
H        1.39314967       0.81020387      16.81077902        0       1.00000000       0.00001506       0.00001422       0.00000332      -0.00000332      -0.00000715      -0.00000570
H        4.20923266       4.05033526       7.77137353        0       1.00000000       0.00000055      -0.00000228      -0.00001000      -0.00002404       0.00000273       0.00003541
H        2.81608266       3.24040430      16.81076570        0       1.00000000       0.00000709       0.00000185       0.00000293       0.00000017       0.00002073      -0.00003425
H        2.80615963       1.62013713       7.77136864        0       1.00000000      -0.00000626      -0.00001511       0.00000628       0.00000091      -0.00000183      -0.00000942
H        1.40308504       4.05033347       7.77136736        0       1.00000000      -0.00000266       0.00000314       0.00001052       0.00004079       0.00000520       0.00000334
H        0.00000208       1.62014397       7.77137505        0       1.00000000      -0.00001421      -0.00001312      -0.00000627      -0.00002306      -0.00000405       0.00002262
18
Lattice="5.612310241546866 0.0 0.0 0.0 4.860403243099165 0.0 0.0 0.0 24.582432123328676" Properties=species:S:1:pos:R:3:tags:I:1:masses:R:1:momenta:R:3:forces:R:3 KEmax=23.26679191048647 iter=150223 volume=670.5618179858607 ns_energy=-11.637341367775734 last_walked_iter_clone=150053 energy=-11.637341368163904 stress="0.022592945666388958 -2.824522043579715e-08 -2.0368876408928868e-08 -2.824522043579715e-08 0.022707420147638074 -1.0082151471503422e-07 -2.0368876408928868e-08 -1.0082151471503422e-07 0.01233057124930755" pbc="T T F"
H        1.40307756       0.81006721      10.00000000        3       1.00000000       0.00000000       0.00000000       0.00000000       0.00000000       0.00000000       0.00000000
H        4.20923268       0.81006721      10.00000000        3       1.00000000       0.00000000       0.00000000       0.00000000       0.00000000       0.00000000       0.00000000
H        0.00000000       3.24026883      10.00000000        3       1.00000000       0.00000000       0.00000000       0.00000000       0.00000000       0.00000000       0.00000000
H        2.80615512       3.24026883      10.00000000        3       1.00000000       0.00000000       0.00000000       0.00000000       0.00000000       0.00000000       0.00000000
H        0.00000000       1.62013441      12.29121606        2       1.00000000       0.00000000       0.00000000       0.00000000       0.00000000       0.00000000       0.00000000
H        2.80615512       1.62013441      12.29121606        2       1.00000000       0.00000000       0.00000000       0.00000000       0.00000000       0.00000000       0.00000000
H        1.40307756       4.05033604      12.29121606        2       1.00000000       0.00000000       0.00000000       0.00000000       0.00000000       0.00000000       0.00000000
H        4.20923268       4.05033604      12.29121606        2       1.00000000       0.00000000       0.00000000       0.00000000       0.00000000       0.00000000       0.00000000
H        0.00000000       0.00000000      14.58243212        1       1.00000000       0.00000000       0.00000000       0.00000000       0.00000000       0.00000000       0.00000000
H        2.80615512       0.00000000      14.58243212        1       1.00000000       0.00000000       0.00000000       0.00000000       0.00000000       0.00000000       0.00000000
H        1.40307756       2.43020162      14.58243212        1       1.00000000       0.00000000       0.00000000       0.00000000       0.00000000       0.00000000       0.00000000
H        4.20923268       2.43020162      14.58243212        1       1.00000000       0.00000000       0.00000000       0.00000000       0.00000000       0.00000000       0.00000000
H        1.39316875       0.81019400      16.81076449        0       1.00000000       0.00000606       0.00000502       0.00001696      -0.00000332      -0.00000715      -0.00000570
H        4.20923962       4.05033064       7.77136358        0       1.00000000      -0.00000036      -0.00001016      -0.00000915      -0.00002404       0.00000273       0.00003541
H        2.81607660       3.24039754      16.81076875        0       1.00000000      -0.00001412       0.00000623      -0.00000181       0.00000017       0.00002073      -0.00003425
H        2.80615939       1.62012761       7.77137063        0       1.00000000      -0.00000126       0.00001415       0.00000418       0.00000091      -0.00000183      -0.00000942
H        1.40309050       4.05033745       7.77136150        0       1.00000000       0.00000550       0.00000478      -0.00001049       0.00004079       0.00000520       0.00000334
H        5.61231749       1.62013053       7.77135974        0       1.00000000       0.00000154       0.00001091       0.00001246      -0.00002306      -0.00000405       0.00002262
18
Lattice="5.612310241546866 0.0 0.0 0.0 4.860403243099165 0.0 0.0 0.0 24.582432123328676" Properties=species:S:1:pos:R:3:tags:I:1:masses:R:1:momenta:R:3:forces:R:3 KEmax=23.26679191048647 iter=150223 volume=670.5618179858607 ns_energy=-11.637341367738768 last_walked_iter_clone=150051 energy=-11.637341368163904 stress="0.022592945666388958 -2.824522043579715e-08 -2.0368876408928868e-08 -2.824522043579715e-08 0.022707420147638074 -1.0082151471503422e-07 -2.0368876408928868e-08 -1.0082151471503422e-07 0.01233057124930755" pbc="T T F"
H        1.40307756       0.81006721      10.00000000        3       1.00000000       0.00000000       0.00000000       0.00000000       0.00000000       0.00000000       0.00000000
H        4.20923268       0.81006721      10.00000000        3       1.00000000       0.00000000       0.00000000       0.00000000       0.00000000       0.00000000       0.00000000
H        0.00000000       3.24026883      10.00000000        3       1.00000000       0.00000000       0.00000000       0.00000000       0.00000000       0.00000000       0.00000000
H        2.80615512       3.24026883      10.00000000        3       1.00000000       0.00000000       0.00000000       0.00000000       0.00000000       0.00000000       0.00000000
H        0.00000000       1.62013441      12.29121606        2       1.00000000       0.00000000       0.00000000       0.00000000       0.00000000       0.00000000       0.00000000
H        2.80615512       1.62013441      12.29121606        2       1.00000000       0.00000000       0.00000000       0.00000000       0.00000000       0.00000000       0.00000000
H        1.40307756       4.05033604      12.29121606        2       1.00000000       0.00000000       0.00000000       0.00000000       0.00000000       0.00000000       0.00000000
H        4.20923268       4.05033604      12.29121606        2       1.00000000       0.00000000       0.00000000       0.00000000       0.00000000       0.00000000       0.00000000
H        0.00000000       0.00000000      14.58243212        1       1.00000000       0.00000000       0.00000000       0.00000000       0.00000000       0.00000000       0.00000000
H        2.80615512       0.00000000      14.58243212        1       1.00000000       0.00000000       0.00000000       0.00000000       0.00000000       0.00000000       0.00000000
H        1.40307756       2.43020162      14.58243212        1       1.00000000       0.00000000       0.00000000       0.00000000       0.00000000       0.00000000       0.00000000
H        4.20923268       2.43020162      14.58243212        1       1.00000000       0.00000000       0.00000000       0.00000000       0.00000000       0.00000000       0.00000000
H        1.39316179       0.81022580      16.81076693        0       1.00000000       0.00000866       0.00001336      -0.00000965      -0.00000332      -0.00000715      -0.00000570
H        4.20923505       4.05033708       7.77136839        0       1.00000000       0.00000308       0.00000874       0.00000746      -0.00002404       0.00000273       0.00003541
H        2.81607994       3.24042352      16.81077558        0       1.00000000       0.00000868       0.00002158       0.00001533       0.00000017       0.00002073      -0.00003425
H        2.80616047       1.62013316       7.77136825        0       1.00000000       0.00000362      -0.00000987      -0.00000673       0.00000091      -0.00000183      -0.00000942
H        1.40307416       4.05033895       7.77135578        0       1.00000000      -0.00000449       0.00001446      -0.00001035       0.00004079       0.00000520       0.00000334
H        5.61232220       1.62013797       7.77136080        0       1.00000000       0.00000243       0.00000099       0.00000843      -0.00002306      -0.00000405       0.00002262
18
Lattice="5.612310241546866 0.0 0.0 0.0 4.860403243099165 0.0 0.0 0.0 24.582432123328676" Properties=species:S:1:pos:R:3:tags:I:1:masses:R:1:momenta:R:3:forces:R:3 KEmax=23.26679191048647 iter=150223 volume=670.5618179858607 ns_energy=-11.637341367783339 last_walked_iter_clone=150108 energy=-11.637341368163904 stress="0.022592945666388958 -2.824522043579715e-08 -2.0368876408928868e-08 -2.824522043579715e-08 0.022707420147638074 -1.0082151471503422e-07 -2.0368876408928868e-08 -1.0082151471503422e-07 0.01233057124930755" pbc="T T F"
H        1.40307756       0.81006721      10.00000000        3       1.00000000       0.00000000       0.00000000       0.00000000       0.00000000       0.00000000       0.00000000
H        4.20923268       0.81006721      10.00000000        3       1.00000000       0.00000000       0.00000000       0.00000000       0.00000000       0.00000000       0.00000000
H        0.00000000       3.24026883      10.00000000        3       1.00000000       0.00000000       0.00000000       0.00000000       0.00000000       0.00000000       0.00000000
H        2.80615512       3.24026883      10.00000000        3       1.00000000       0.00000000       0.00000000       0.00000000       0.00000000       0.00000000       0.00000000
H        0.00000000       1.62013441      12.29121606        2       1.00000000       0.00000000       0.00000000       0.00000000       0.00000000       0.00000000       0.00000000
H        2.80615512       1.62013441      12.29121606        2       1.00000000       0.00000000       0.00000000       0.00000000       0.00000000       0.00000000       0.00000000
H        1.40307756       4.05033604      12.29121606        2       1.00000000       0.00000000       0.00000000       0.00000000       0.00000000       0.00000000       0.00000000
H        4.20923268       4.05033604      12.29121606        2       1.00000000       0.00000000       0.00000000       0.00000000       0.00000000       0.00000000       0.00000000
H        0.00000000       0.00000000      14.58243212        1       1.00000000       0.00000000       0.00000000       0.00000000       0.00000000       0.00000000       0.00000000
H        2.80615512       0.00000000      14.58243212        1       1.00000000       0.00000000       0.00000000       0.00000000       0.00000000       0.00000000       0.00000000
H        1.40307756       2.43020162      14.58243212        1       1.00000000       0.00000000       0.00000000       0.00000000       0.00000000       0.00000000       0.00000000
H        4.20923268       2.43020162      14.58243212        1       1.00000000       0.00000000       0.00000000       0.00000000       0.00000000       0.00000000       0.00000000
H        1.39316242       0.81020805      16.81076859        0       1.00000000       0.00000060      -0.00001815      -0.00000539      -0.00000332      -0.00000715      -0.00000570
H        4.20923960       4.05032819       7.77137515        0       1.00000000      -0.00001337      -0.00001196       0.00000222      -0.00002404       0.00000273       0.00003541
H        2.81608089       3.24041581      16.81076840        0       1.00000000      -0.00000610       0.00000090      -0.00000241       0.00000017       0.00002073      -0.00003425
H        2.80617011       1.62012923       7.77137247        0       1.00000000      -0.00000915      -0.00000831       0.00000725       0.00000091      -0.00000183      -0.00000942
H        1.40308385       4.05034099       7.77136356        0       1.00000000       0.00001109      -0.00001121       0.00000524       0.00004079       0.00000520       0.00000334
H        0.00000923       1.62013184       7.77136480        0       1.00000000       0.00002001      -0.00001200      -0.00000808      -0.00002306      -0.00000405       0.00002262
18
Lattice="5.612310241546866 0.0 0.0 0.0 4.860403243099165 0.0 0.0 0.0 24.582432123328676" Properties=species:S:1:pos:R:3:tags:I:1:masses:R:1:momenta:R:3:forces:R:3 KEmax=23.26679191048647 iter=150223 volume=670.5618179858607 ns_energy=-11.63734136773296 last_walked_iter_clone=150102 energy=-11.637341368163904 stress="0.022592945666388958 -2.824522043579715e-08 -2.0368876408928868e-08 -2.824522043579715e-08 0.022707420147638074 -1.0082151471503422e-07 -2.0368876408928868e-08 -1.0082151471503422e-07 0.01233057124930755" pbc="T T F"
H        1.40307756       0.81006721      10.00000000        3       1.00000000       0.00000000       0.00000000       0.00000000       0.00000000       0.00000000       0.00000000
H        4.20923268       0.81006721      10.00000000        3       1.00000000       0.00000000       0.00000000       0.00000000       0.00000000       0.00000000       0.00000000
H        0.00000000       3.24026883      10.00000000        3       1.00000000       0.00000000       0.00000000       0.00000000       0.00000000       0.00000000       0.00000000
H        2.80615512       3.24026883      10.00000000        3       1.00000000       0.00000000       0.00000000       0.00000000       0.00000000       0.00000000       0.00000000
H        0.00000000       1.62013441      12.29121606        2       1.00000000       0.00000000       0.00000000       0.00000000       0.00000000       0.00000000       0.00000000
H        2.80615512       1.62013441      12.29121606        2       1.00000000       0.00000000       0.00000000       0.00000000       0.00000000       0.00000000       0.00000000
H        1.40307756       4.05033604      12.29121606        2       1.00000000       0.00000000       0.00000000       0.00000000       0.00000000       0.00000000       0.00000000
H        4.20923268       4.05033604      12.29121606        2       1.00000000       0.00000000       0.00000000       0.00000000       0.00000000       0.00000000       0.00000000
H        0.00000000       0.00000000      14.58243212        1       1.00000000       0.00000000       0.00000000       0.00000000       0.00000000       0.00000000       0.00000000
H        2.80615512       0.00000000      14.58243212        1       1.00000000       0.00000000       0.00000000       0.00000000       0.00000000       0.00000000       0.00000000
H        1.40307756       2.43020162      14.58243212        1       1.00000000       0.00000000       0.00000000       0.00000000       0.00000000       0.00000000       0.00000000
H        4.20923268       2.43020162      14.58243212        1       1.00000000       0.00000000       0.00000000       0.00000000       0.00000000       0.00000000       0.00000000
H        1.39315671       0.81020825      16.81076049        0       1.00000000      -0.00000721      -0.00000279      -0.00000011      -0.00000332      -0.00000715      -0.00000570
H        4.20922657       4.05033789       7.77136906        0       1.00000000      -0.00000516      -0.00000329      -0.00000465      -0.00002404       0.00000273       0.00003541
H        2.81608569       3.24041078      16.81076212        0       1.00000000      -0.00000388      -0.00000087      -0.00000572       0.00000017       0.00002073      -0.00003425