18
Lattice="5.612310241546866 0.0 0.0 0.0 4.860403243099165 0.0 0.0 0.0 14.582432123328676" Properties=species:S:1:pos:R:3:tags:I:1:masses:R:1:momenta:R:3 KEmax=23.26679191048647 iter=99 volume=397.78090899293073 ns_energy=864.6130447138511 ns_P=0.0 config_n_global=99 ns_KE=7.229346624669625 pbc="T T T"
H        1.40307756       0.81006721       5.00000000        3       1.00000000       0.00000000       0.00000000       0.00000000
H        4.20923268       0.81006721       5.00000000        3       1.00000000       0.00000000       0.00000000       0.00000000
H        0.00000000       3.24026883       5.00000000        3       1.00000000       0.00000000       0.00000000       0.00000000
H        2.80615512       3.24026883       5.00000000        3       1.00000000       0.00000000       0.00000000       0.00000000
H        0.00000000       1.62013441       7.29121606        2       1.00000000       0.00000000       0.00000000       0.00000000
H        2.80615512       1.62013441       7.29121606        2       1.00000000       0.00000000       0.00000000       0.00000000
H        1.40307756       4.05033604       7.29121606        2       1.00000000       0.00000000       0.00000000       0.00000000
H        4.20923268       4.05033604       7.29121606        2       1.00000000       0.00000000       0.00000000       0.00000000
H        0.00000000       0.00000000       9.58243212        1       1.00000000       0.00000000       0.00000000       0.00000000
H        2.80615512       0.00000000       9.58243212        1       1.00000000       0.00000000       0.00000000       0.00000000
H        1.40307756       2.43020162       9.58243212        1       1.00000000       0.00000000       0.00000000       0.00000000
H        4.20923268       2.43020162       9.58243212        1       1.00000000       0.00000000       0.00000000       0.00000000
H        0.59415863       0.03992161      11.84640819        0       1.00000000       0.99483855       0.50218365      -0.18579582
H        2.13095250       3.30891116       1.76424193        0       1.00000000       0.45634544      -1.23755900      -0.13396354
H        2.78056054       4.19923153      14.25965427        0       1.00000000       1.12874525       0.51038565       1.15242056
H        0.57083030       3.25075156      13.94909629        0       1.00000000      -1.47817272       1.67743523       1.32902995
H        2.89327694       1.79183392      11.75954480        0       1.00000000      -0.05248536      -0.67045015      -0.20859635
H        4.08554630       4.07811963      14.14181976        0       1.00000000       1.00083561      -0.15317514       0.52525192
18
Lattice="5.612310241546866 0.0 0.0 0.0 4.860403243099165 0.0 0.0 0.0 14.582432123328676" Properties=species:S:1:pos:R:3:tags:I:1:masses:R:1:momenta:R:3 KEmax=23.26679191048647 iter=199 volume=397.78090899293073 ns_energy=73.06857702517593 ns_P=0.0 config_n_global=199 ns_KE=6.728268809141908 pbc="T T T"
H        1.40307756       0.81006721       5.00000000        3       1.00000000       0.00000000       0.00000000       0.00000000
H        4.20923268       0.81006721       5.00000000        3       1.00000000       0.00000000       0.00000000       0.00000000
H        0.00000000       3.24026883       5.00000000        3       1.00000000       0.00000000       0.00000000       0.00000000
H        2.80615512       3.24026883       5.00000000        3       1.00000000       0.00000000       0.00000000       0.00000000
H        0.00000000       1.62013441       7.29121606        2       1.00000000       0.00000000       0.00000000       0.00000000
H        2.80615512       1.62013441       7.29121606        2       1.00000000       0.00000000       0.00000000       0.00000000
H        1.40307756       4.05033604       7.29121606        2       1.00000000       0.00000000       0.00000000       0.00000000
H        4.20923268       4.05033604       7.29121606        2       1.00000000       0.00000000       0.00000000       0.00000000
H        0.00000000       0.00000000       9.58243212        1       1.00000000       0.00000000       0.00000000       0.00000000
H        2.80615512       0.00000000       9.58243212        1       1.00000000       0.00000000       0.00000000       0.00000000
H        1.40307756       2.43020162       9.58243212        1       1.00000000       0.00000000       0.00000000       0.00000000
H        4.20923268       2.43020162       9.58243212        1       1.00000000       0.00000000       0.00000000       0.00000000
H        2.85819587       4.45336706       2.48606734        0       1.00000000       0.63457210      -0.55271500       0.48167298
H        4.19197145       0.80569509       1.83103503        0       1.00000000       0.17566601       0.38066944       0.54506628
H        2.06013190       4.62701998      12.42704094        0       1.00000000       0.67056626       0.84674784      -2.14085716
H        0.33368255       0.97108829      12.36398893        0       1.00000000       0.08974950       0.54821136      -0.49449516
H        3.31896198       0.59664400      13.10169405        0       1.00000000      -1.35377274       0.40402738      -0.67463267
H        3.27085478       2.91209010       1.56041622        0       1.00000000       0.30045924       0.18276158      -1.77924593
18
Lattice="5.612310241546866 0.0 0.0 0.0 4.860403243099165 0.0 0.0 0.0 14.582432123328676" Properties=species:S:1:pos:R:3:tags:I:1:masses:R:1:momenta:R:3 KEmax=23.26679191048647 iter=299 volume=397.78090899293073 ns_energy=21.75154854230423 last_walked_iter_clone=87 ns_P=0.0 config_n_global=299 ns_KE=20.786608870303443 pbc="T T T"
H        1.40307756       0.81006721       5.00000000        3       1.00000000       0.00000000       0.00000000       0.00000000
H        4.20923268       0.81006721       5.00000000        3       1.00000000       0.00000000       0.00000000       0.00000000
H        0.00000000       3.24026883       5.00000000        3       1.00000000       0.00000000       0.00000000       0.00000000
H        2.80615512       3.24026883       5.00000000        3       1.00000000       0.00000000       0.00000000       0.00000000
H        0.00000000       1.62013441       7.29121606        2       1.00000000       0.00000000       0.00000000       0.00000000
H        2.80615512       1.62013441       7.29121606        2       1.00000000       0.00000000       0.00000000       0.00000000
H        1.40307756       4.05033604       7.29121606        2       1.00000000       0.00000000       0.00000000       0.00000000
H        4.20923268       4.05033604       7.29121606        2       1.00000000       0.00000000       0.00000000       0.00000000
H        0.00000000       0.00000000       9.58243212        1       1.00000000       0.00000000       0.00000000       0.00000000
H        2.80615512       0.00000000       9.58243212        1       1.00000000       0.00000000       0.00000000       0.00000000
H        1.40307756       2.43020162       9.58243212        1       1.00000000       0.00000000       0.00000000       0.00000000
H        4.20923268       2.43020162       9.58243212        1       1.00000000       0.00000000       0.00000000       0.00000000
H        2.03396229       4.67456467      12.01466500        0       1.00000000      -0.19304758      -0.24736376      -0.38902274
H        4.50970459       0.53832194      12.33262106        0       1.00000000      -3.13382848      -0.40859477       0.04537174
H        4.43222275       3.82742741      14.34295598        0       1.00000000       1.70252685       0.21136304      -0.68318915
H        1.81756451       2.65944905       1.86728679        0       1.00000000       1.30838859       3.12523489       0.19679383
H        5.60673791       3.58350829      12.33744142        0       1.00000000      -0.01085293      -0.01343273      -1.89100448
H        2.85082234       2.83988189      13.94587435        0       1.00000000       3.05919643      -1.64584960      -0.87299070
18
Lattice="5.612310241546866 0.0 0.0 0.0 4.860403243099165 0.0 0.0 0.0 14.582432123328676" Properties=species:S:1:pos:R:3:tags:I:1:masses:R:1:momenta:R:3 KEmax=23.26679191048647 iter=399 volume=397.78090899293073 ns_energy=15.048324377326772 last_walked_iter_clone=302 ns_P=0.0 config_n_global=399 ns_KE=19.701143124240424 pbc="T T T"
H        1.40307756       0.81006721       5.00000000        3       1.00000000       0.00000000       0.00000000       0.00000000
H        4.20923268       0.81006721       5.00000000        3       1.00000000       0.00000000       0.00000000       0.00000000
H        0.00000000       3.24026883       5.00000000        3       1.00000000       0.00000000       0.00000000       0.00000000
H        2.80615512       3.24026883       5.00000000        3       1.00000000       0.00000000       0.00000000       0.00000000
H        0.00000000       1.62013441       7.29121606        2       1.00000000       0.00000000       0.00000000       0.00000000
H        2.80615512       1.62013441       7.29121606        2       1.00000000       0.00000000       0.00000000       0.00000000
H        1.40307756       4.05033604       7.29121606        2       1.00000000       0.00000000       0.00000000       0.00000000
H        4.20923268       4.05033604       7.29121606        2       1.00000000       0.00000000       0.00000000       0.00000000
H        0.00000000       0.00000000       9.58243212        1       1.00000000       0.00000000       0.00000000       0.00000000
H        2.80615512       0.00000000       9.58243212        1       1.00000000       0.00000000       0.00000000       0.00000000
H        1.40307756       2.43020162       9.58243212        1       1.00000000       0.00000000       0.00000000       0.00000000
H        4.20923268       2.43020162       9.58243212        1       1.00000000       0.00000000       0.00000000       0.00000000
H        4.45881912       3.45017514       2.86984443        0       1.00000000      -1.92618628       3.46689502      -0.95423800
H        3.93214976       4.41751720      13.86464250        0       1.00000000      -0.82796725       0.70557252      -2.40224313
H        2.76814680       2.29549128      13.89213775        0       1.00000000       1.09706014      -1.71932529       1.54444305
H        4.70952129       4.16950252      11.56055242        0       1.00000000      -0.06587239       0.73046648       1.02818048
H        0.72423437       1.01629904       1.94036017        0       1.00000000      -0.94655711      -0.68177761      -1.55330078
H        1.56059423       0.73171911      14.29699757        0       1.00000000      -0.90853908       1.16322205      -1.30994792
18
Lattice="5.612310241546866 0.0 0.0 0.0 4.860403243099165 0.0 0.0 0.0 14.582432123328676" Properties=species:S:1:pos:R:3:tags:I:1:masses:R:1:momenta:R:3 KEmax=23.26679191048647 iter=499 volume=397.78090899293073 ns_energy=13.39594475980969 last_walked_iter_clone=324 ns_P=0.0 config_n_global=499 ns_KE=21.277782309329282 pbc="T T T"
H        1.40307756       0.81006721       5.00000000        3       1.00000000       0.00000000       0.00000000       0.00000000
H        4.20923268       0.81006721       5.00000000        3       1.00000000       0.00000000       0.00000000       0.00000000
H        0.00000000       3.24026883       5.00000000        3       1.00000000       0.00000000       0.00000000       0.00000000
H        2.80615512       3.24026883       5.00000000        3       1.00000000       0.00000000       0.00000000       0.00000000
H        0.00000000       1.62013441       7.29121606        2       1.00000000       0.00000000       0.00000000       0.00000000
H        2.80615512       1.62013441       7.29121606        2       1.00000000       0.00000000       0.00000000       0.00000000
H        1.40307756       4.05033604       7.29121606        2       1.00000000       0.00000000       0.00000000       0.00000000
H        4.20923268       4.05033604       7.29121606        2       1.00000000       0.00000000       0.00000000       0.00000000
H        0.00000000       0.00000000       9.58243212        1       1.00000000       0.00000000       0.00000000       0.00000000
H        2.80615512       0.00000000       9.58243212        1       1.00000000       0.00000000       0.00000000       0.00000000
H        1.40307756       2.43020162       9.58243212        1       1.00000000       0.00000000       0.00000000       0.00000000
H        4.20923268       2.43020162       9.58243212        1       1.00000000       0.00000000       0.00000000       0.00000000
H        2.93107538       1.16598497      12.13766926        0       1.00000000      -1.25922925      -1.30549516      -1.25473339
H        4.72364205       2.39734092      13.65169245        0       1.00000000       1.76312418       3.28010679       1.18599553
H        0.22640309       0.25048156       1.84124139        0       1.00000000       2.60740268       1.07436634       0.05823170
H        3.51493927       0.92996871       2.72347677        0       1.00000000       0.02247960      -1.07768975       0.00350932
H        0.98972052       2.01999238       0.94020051        0       1.00000000      -0.60082385       1.41964539      -1.41651283
H        0.31133673       0.70135813      12.01656482        0       1.00000000      -1.52234007      -0.84150079       2.42698798
18
Lattice="5.612310241546866 0.0 0.0 0.0 4.860403243099165 0.0 0.0 0.0 14.582432123328676" Properties=species:S:1:pos:R:3:tags:I:1:masses:R:1:momenta:R:3 KEmax=23.26679191048647 iter=599 volume=397.78090899293073 ns_energy=11.929145173057906 last_walked_iter_clone=505 ns_P=0.0 config_n_global=599 ns_KE=20.286488460732258 pbc="T T T"
H        1.40307756       0.81006721       5.00000000        3       1.00000000       0.00000000       0.00000000       0.00000000
H        4.20923268       0.81006721       5.00000000        3       1.00000000       0.00000000       0.00000000       0.00000000
H        0.00000000       3.24026883       5.00000000        3       1.00000000       0.00000000       0.00000000       0.00000000
H        2.80615512       3.24026883       5.00000000        3       1.00000000       0.00000000       0.00000000       0.00000000
H        0.00000000       1.62013441       7.29121606        2       1.00000000       0.00000000       0.00000000       0.00000000
H        2.80615512       1.62013441       7.29121606        2       1.00000000       0.00000000       0.00000000       0.00000000
H        1.40307756       4.05033604       7.29121606        2       1.00000000       0.00000000       0.00000000       0.00000000
H        4.20923268       4.05033604       7.29121606        2       1.00000000       0.00000000       0.00000000       0.00000000
H        0.00000000       0.00000000       9.58243212        1       1.00000000       0.00000000       0.00000000       0.00000000
H        2.80615512       0.00000000       9.58243212        1       1.00000000       0.00000000       0.00000000       0.00000000
H        1.40307756       2.43020162       9.58243212        1       1.00000000       0.00000000       0.00000000       0.00000000
H        4.20923268       2.43020162       9.58243212        1       1.00000000       0.00000000       0.00000000       0.00000000
H        3.40971024       1.09082654       0.57370555        0       1.00000000       0.68068247       2.00961976      -1.70559559
H        1.83080759       3.56349179      14.52089709        0       1.00000000      -1.63450499       0.27122349       0.65355980
H        1.92129778       0.42522753       2.01391067        0       1.00000000      -0.48218453      -0.18925773      -1.68138440
H        3.45225796       2.71066658       2.28429910        0       1.00000000       2.44857282      -2.27244300       0.46097276
H        0.32533927       2.46530166      12.69232755        0       1.00000000      -2.14829450       0.72846121       1.32917627
H        3.64482679       4.37541410      12.67167157        0       1.00000000       2.40633127       0.70410447       1.52433838
18
Lattice="5.612310241546866 0.0 0.0 0.0 4.860403243099165 0.0 0.0 0.0 14.582432123328676" Properties=species:S:1:pos:R:3:tags:I:1:masses:R:1:momenta:R:3 KEmax=23.26679191048647 iter=699 volume=397.78090899293073 ns_energy=10.781768402858505 last_walked_iter_clone=421 ns_P=0.0 config_n_global=699 ns_KE=17.77618833965051 pbc="T T T"
H        1.40307756       0.81006721       5.00000000        3       1.00000000       0.00000000       0.00000000       0.00000000
H        4.20923268       0.81006721       5.00000000        3       1.00000000       0.00000000       0.00000000       0.00000000
H        0.00000000       3.24026883       5.00000000        3       1.00000000       0.00000000       0.00000000       0.00000000
H        2.80615512       3.24026883       5.00000000        3       1.00000000       0.00000000       0.00000000       0.00000000
H        0.00000000       1.62013441       7.29121606        2       1.00000000       0.00000000       0.00000000       0.00000000
H        2.80615512       1.62013441       7.29121606        2       1.00000000       0.00000000       0.00000000       0.00000000
H        1.40307756       4.05033604       7.29121606        2       1.00000000       0.00000000       0.00000000       0.00000000
H        4.20923268       4.05033604       7.29121606        2       1.00000000       0.00000000       0.00000000       0.00000000
H        0.00000000       0.00000000       9.58243212        1       1.00000000       0.00000000       0.00000000       0.00000000
H        2.80615512       0.00000000       9.58243212        1       1.00000000       0.00000000       0.00000000       0.00000000
H        1.40307756       2.43020162       9.58243212        1       1.00000000       0.00000000       0.00000000       0.00000000
H        4.20923268       2.43020162       9.58243212        1       1.00000000       0.00000000       0.00000000       0.00000000
H        3.71984026       3.96477793       2.83591961        0       1.00000000       0.78208092       0.11425517      -3.11294501
H        5.37344857       3.58051901      14.03481087        0       1.00000000      -0.26640293      -1.34268433       1.55441355
H        1.40058324       1.27309073      14.45796652        0       1.00000000       0.92718679       0.05998175       0.54852684
H        0.70444079       4.08854325      11.48339645        0       1.00000000      -2.15274361      -0.08395733       1.71922512
H        0.52971826       1.53785955       3.05553333        0       1.00000000       1.66606474       0.81365462      -1.13974846
H        1.62838356       4.32669809       2.26736514        0       1.00000000       2.48756593      -1.05302468       0.39032156
18
Lattice="5.612310241546866 0.0 0.0 0.0 4.860403243099165 0.0 0.0 0.0 14.582432123328676" Properties=species:S:1:pos:R:3:tags:I:1:masses:R:1:momenta:R:3 KEmax=23.26679191048647 iter=799 volume=397.78090899293073 ns_energy=9.47521499276393 last_walked_iter_clone=752 ns_P=0.0 config_n_global=799 ns_KE=16.001943900727174 pbc="T T T"
H        1.40307756       0.81006721       5.00000000        3       1.00000000       0.00000000       0.00000000       0.00000000
H        4.20923268       0.81006721       5.00000000        3       1.00000000       0.00000000       0.00000000       0.00000000
H        0.00000000       3.24026883       5.00000000        3       1.00000000       0.00000000       0.00000000       0.00000000
H        2.80615512       3.24026883       5.00000000        3       1.00000000       0.00000000       0.00000000       0.00000000
H        0.00000000       1.62013441       7.29121606        2       1.00000000       0.00000000       0.00000000       0.00000000
H        2.80615512       1.62013441       7.29121606        2       1.00000000       0.00000000       0.00000000       0.00000000
H        1.40307756       4.05033604       7.29121606        2       1.00000000       0.00000000       0.00000000       0.00000000
H        4.20923268       4.05033604       7.29121606        2       1.00000000       0.00000000       0.00000000       0.00000000
H        0.00000000       0.00000000       9.58243212        1       1.00000000       0.00000000       0.00000000       0.00000000
H        2.80615512       0.00000000       9.58243212        1       1.00000000       0.00000000       0.00000000       0.00000000
H        1.40307756       2.43020162       9.58243212        1       1.00000000       0.00000000       0.00000000       0.00000000
H        4.20923268       2.43020162       9.58243212        1       1.00000000       0.00000000       0.00000000       0.00000000
H        0.85363797       2.47893698      12.30346023        0       1.00000000       0.37331590      -1.09881230      -1.57734863
H        3.18829933       3.95720373      12.06300358        0       1.00000000       0.35157201      -1.85507573       0.08905910
H        2.07311520       3.64847259      13.83968664        0       1.00000000      -0.49525051      -1.39605003      -0.38462482
H        4.16811207       1.93905128      11.97731752        0       1.00000000       1.34136980      -0.54985130       0.50945847
H        4.31113799       1.74686744      14.56414274        0       1.00000000      -1.83440369      -1.62697997      -0.88736648
H        0.33952432       4.68718374       1.25256167        0       1.00000000      -0.98546618       3.36738963       0.88485407
18
Lattice="5.612310241546866 0.0 0.0 0.0 4.860403243099165 0.0 0.0 0.0 14.582432123328676" Properties=species:S:1:pos:R:3:tags:I:1:masses:R:1:momenta:R:3 KEmax=23.26679191048647 iter=899 volume=397.78090899293073 ns_energy=8.225878380026549 last_walked_iter_clone=850 ns_P=0.0 config_n_global=899 ns_KE=16.282169698755265 pbc="T T T"
H        1.40307756       0.81006721       5.00000000        3       1.00000000       0.00000000       0.00000000       0.00000000
H        4.20923268       0.81006721       5.00000000        3       1.00000000       0.00000000       0.00000000       0.00000000
H        0.00000000       3.24026883       5.00000000        3       1.00000000       0.00000000       0.00000000       0.00000000
H        2.80615512       3.24026883       5.00000000        3       1.00000000       0.00000000       0.00000000       0.00000000
H        0.00000000       1.62013441       7.29121606        2       1.00000000       0.00000000       0.00000000       0.00000000
H        2.80615512       1.62013441       7.29121606        2       1.00000000       0.00000000       0.00000000       0.00000000
H        1.40307756       4.05033604       7.29121606        2       1.00000000       0.00000000       0.00000000       0.00000000
H        4.20923268       4.05033604       7.29121606        2       1.00000000       0.00000000       0.00000000       0.00000000
H        0.00000000       0.00000000       9.58243212        1       1.00000000       0.00000000       0.00000000       0.00000000
H        2.80615512       0.00000000       9.58243212        1       1.00000000       0.00000000       0.00000000       0.00000000
H        1.40307756       2.43020162       9.58243212        1       1.00000000       0.00000000       0.00000000       0.00000000
H        4.20923268       2.43020162       9.58243212        1       1.00000000       0.00000000       0.00000000       0.00000000
H        1.10313283       1.05341551      12.07266470        0       1.00000000      -2.41670984       0.34707527      -0.73992169
H        4.61868450       2.52143555       0.73983050        0       1.00000000       2.09374989      -1.30447165       1.88488395
H        3.74522563       1.03369824      12.34268718        0       1.00000000       2.23171243      -0.64630098       0.85642244
H        3.02209387       0.97443139       1.55329006        0       1.00000000       1.83752822      -1.57296435      -0.58837924
H        0.45936385       0.58586958       2.73856526        0       1.00000000       0.44730028       1.27266668       0.60566948
H        2.14648168       2.61583419       3.06338333        0       1.00000000       0.46641025      -0.92134692       0.91435843
18
Lattice="5.612310241546866 0.0 0.0 0.0 4.860403243099165 0.0 0.0 0.0 14.582432123328676" Properties=species:S:1:pos:R:3:tags:I:1:masses:R:1:momenta:R:3 KEmax=23.26679191048647 iter=999 volume=397.78090899293073 ns_energy=7.250632005381955 last_walked_iter_clone=955 ns_P=0.0 config_n_global=999 ns_KE=16.223048222843275 pbc="T T T"
H        1.40307756       0.81006721       5.00000000        3       1.00000000       0.00000000       0.00000000       0.00000000
H        4.20923268       0.81006721       5.00000000        3       1.00000000       0.00000000       0.00000000       0.00000000
H        0.00000000       3.24026883       5.00000000        3       1.00000000       0.00000000       0.00000000       0.00000000
H        2.80615512       3.24026883       5.00000000        3       1.00000000       0.00000000       0.00000000       0.00000000
H        0.00000000       1.62013441       7.29121606        2       1.00000000       0.00000000       0.00000000       0.00000000
H        2.80615512       1.62013441       7.29121606        2       1.00000000       0.00000000       0.00000000       0.00000000
H        1.40307756       4.05033604       7.29121606        2       1.00000000       0.00000000       0.00000000       0.00000000
H        4.20923268       4.05033604       7.29121606        2       1.00000000       0.00000000       0.00000000       0.00000000
H        0.00000000       0.00000000       9.58243212        1       1.00000000       0.00000000       0.00000000       0.00000000
H        2.80615512       0.00000000       9.58243212        1       1.00000000       0.00000000       0.00000000       0.00000000
H        1.40307756       2.43020162       9.58243212        1       1.00000000       0.00000000       0.00000000       0.00000000
H        4.20923268       2.43020162       9.58243212        1       1.00000000       0.00000000       0.00000000       0.00000000
H        1.16266954       0.02898908      11.59817359        0       1.00000000      -1.01824741      -1.57370014      -2.12781419
H        4.13674137       1.97046420       1.34715948        0       1.00000000      -0.51373400      -2.43762934      -1.41947681
H        0.94317307       3.70640322       2.71691516        0       1.00000000      -0.46103641      -2.26730795       1.04036997
H        1.73253552       2.35538870       0.75492422        0       1.00000000      -1.48473322      -0.29874458      -0.74822283
H        5.55514473       1.97949378      13.28894103        0       1.00000000       1.46296914       0.20364822       1.61292251
H        3.03741107       1.03949185      12.53302258        0       1.00000000       0.61614684       0.05417459       1.31502825
18
Lattice="5.612310241546866 0.0 0.0 0.0 4.860403243099165 0.0 0.0 0.0 14.582432123328676" Properties=species:S:1:pos:R:3:tags:I:1:masses:R:1:momenta:R:3 KEmax=23.26679191048647 iter=1099 volume=397.78090899293073 ns_energy=6.3280913900240625 last_walked_iter_clone=994 ns_P=0.0 config_n_global=1099 ns_KE=16.2946704115905 pbc="T T T"
H        1.40307756       0.81006721       5.00000000        3       1.00000000       0.00000000       0.00000000       0.00000000
H        4.20923268       0.81006721       5.00000000        3       1.00000000       0.00000000       0.00000000       0.00000000
H        0.00000000       3.24026883       5.00000000        3       1.00000000       0.00000000       0.00000000       0.00000000
H        2.80615512       3.24026883       5.00000000        3       1.00000000       0.00000000       0.00000000       0.00000000
H        0.00000000       1.62013441       7.29121606        2       1.00000000       0.00000000       0.00000000       0.00000000
H        2.80615512       1.62013441       7.29121606        2       1.00000000       0.00000000       0.00000000       0.00000000
H        1.40307756       4.05033604       7.29121606        2       1.00000000       0.00000000       0.00000000       0.00000000
H        4.20923268       4.05033604       7.29121606        2       1.00000000       0.00000000       0.00000000       0.00000000
H        0.00000000       0.00000000       9.58243212        1       1.00000000       0.00000000       0.00000000       0.00000000
H        2.80615512       0.00000000       9.58243212        1       1.00000000       0.00000000       0.00000000       0.00000000
H        1.40307756       2.43020162       9.58243212        1       1.00000000       0.00000000       0.00000000       0.00000000
H        4.20923268       2.43020162       9.58243212        1       1.00000000       0.00000000       0.00000000       0.00000000
H        4.00889084       3.62998990      11.99564354        0       1.00000000       0.30612645       0.53980949      -1.47111927
H        5.06201514       3.73763874       0.25043672        0       1.00000000       0.32061369      -0.39270105      -1.02099155
H        4.92113073       4.34334673       2.77900464        0       1.00000000      -1.30156994       1.94901015      -0.50002749
H        3.40833819       1.82048322       1.49616211        0       1.00000000       0.78850490      -0.01431183      -0.22178710
H        2.27464328       3.98912780       1.23221704        0       1.00000000      -0.07322244       0.37573093      -0.08353399
H        0.50992559       1.66502080       2.99619878        0       1.00000000       2.69152052      -3.84725961       0.35710093
18
Lattice="5.612310241546866 0.0 0.0 0.0 4.860403243099165 0.0 0.0 0.0 14.582432123328676" Properties=species:S:1:pos:R:3:tags:I:1:masses:R:1:momenta:R:3 KEmax=23.26679191048647 iter=1199 volume=397.78090899293073 ns_energy=5.381625761049145 last_walked_iter_clone=1022 ns_P=0.0 config_n_global=1199 ns_KE=14.988279161570514 pbc="T T T"