18
Lattice="5.612310241546866 0.0 0.0 0.0 4.860403243099165 0.0 0.0 0.0 14.582432123328676" Properties=species:S:1:pos:R:3:tags:I:1:masses:R:1:momenta:R:3:forces:R:3 KEmax=23.26679191048647 iter=91085 volume=397.78090899293073 ns_energy=-11.666017971722786 last_walked_iter_clone=90875 energy=-11.666017971746701 stress="0.014010896296764474 6.888000957995139e-09 2.2739972774825898e-08 6.888000957995139e-09 0.014006228693106717 5.422911136420485e-07 2.2739972774825898e-08 5.422911136420485e-07 0.00787627117306937" pbc="T T T"
H        1.40307756       0.81006721       5.00000000        3       1.00000000       0.00000000       0.00000000       0.00000000       0.00000000       0.00000000       0.00000000
H        4.20923268       0.81006721       5.00000000        3       1.00000000       0.00000000       0.00000000       0.00000000       0.00000000       0.00000000       0.00000000
H        0.00000000       3.24026883       5.00000000        3       1.00000000       0.00000000       0.00000000       0.00000000       0.00000000       0.00000000       0.00000000
H        2.80615512       3.24026883       5.00000000        3       1.00000000       0.00000000       0.00000000       0.00000000       0.00000000       0.00000000       0.00000000
H        0.00000000       1.62013441       7.29121606        2       1.00000000       0.00000000       0.00000000       0.00000000       0.00000000       0.00000000       0.00000000
H        2.80615512       1.62013441       7.29121606        2       1.00000000       0.00000000       0.00000000       0.00000000       0.00000000       0.00000000       0.00000000
H        1.40307756       4.05033604       7.29121606        2       1.00000000       0.00000000       0.00000000       0.00000000       0.00000000       0.00000000       0.00000000
H        4.20923268       4.05033604       7.29121606        2       1.00000000       0.00000000       0.00000000       0.00000000       0.00000000       0.00000000       0.00000000
H        0.00000000       0.00000000       9.58243212        1       1.00000000       0.00000000       0.00000000       0.00000000       0.00000000       0.00000000       0.00000000
H        2.80615512       0.00000000       9.58243212        1       1.00000000       0.00000000       0.00000000       0.00000000       0.00000000       0.00000000       0.00000000
H        1.40307756       2.43020162       9.58243212        1       1.00000000       0.00000000       0.00000000       0.00000000       0.00000000       0.00000000       0.00000000
H        4.20923268       2.43020162       9.58243212        1       1.00000000       0.00000000       0.00000000       0.00000000       0.00000000       0.00000000       0.00000000
H        0.00948927       4.84657765       2.76736022        0       1.00000000       0.00000153       0.00000196      -0.00000258       0.00000063       0.00000215      -0.00000434
H        2.79939261       3.25859514       0.55683207        0       1.00000000       0.00000020      -0.00000122      -0.00000186       0.00000238       0.00000105       0.00000066
H        4.21259114       2.44261110       2.79009002        0       1.00000000      -0.00000027       0.00000060      -0.00000253      -0.00000392      -0.00000558      -0.00000573
H        4.21599874       0.82839501       0.55683137        0       1.00000000      -0.00000009       0.00000029      -0.00000123      -0.00000094      -0.00000127       0.00000264
H        1.39358754       2.41637592       2.76735882        0       1.00000000      -0.00000211      -0.00000427       0.00000161       0.00000521       0.00000080       0.00000083
H        2.80279593       0.01240896       2.79008821        0       1.00000000       0.00000070       0.00000055       0.00000334      -0.00000077       0.00000031      -0.00000450
18
Lattice="5.612310241546866 0.0 0.0 0.0 4.860403243099165 0.0 0.0 0.0 14.582432123328676" Properties=species:S:1:pos:R:3:tags:I:1:masses:R:1:momenta:R:3:forces:R:3 KEmax=23.26679191048647 iter=91085 volume=397.78090899293073 ns_energy=-11.666017971723338 last_walked_iter_clone=91072 energy=-11.666017971746701 stress="0.014010896296764474 6.888000957995139e-09 2.2739972774825898e-08 6.888000957995139e-09 0.014006228693106717 5.422911136420485e-07 2.2739972774825898e-08 5.422911136420485e-07 0.00787627117306937" pbc="T T T"
H        1.40307756       0.81006721       5.00000000        3       1.00000000       0.00000000       0.00000000       0.00000000       0.00000000       0.00000000       0.00000000
H        4.20923268       0.81006721       5.00000000        3       1.00000000       0.00000000       0.00000000       0.00000000       0.00000000       0.00000000       0.00000000
H        0.00000000       3.24026883       5.00000000        3       1.00000000       0.00000000       0.00000000       0.00000000       0.00000000       0.00000000       0.00000000
H        2.80615512       3.24026883       5.00000000        3       1.00000000       0.00000000       0.00000000       0.00000000       0.00000000       0.00000000       0.00000000
H        0.00000000       1.62013441       7.29121606        2       1.00000000       0.00000000       0.00000000       0.00000000       0.00000000       0.00000000       0.00000000
H        2.80615512       1.62013441       7.29121606        2       1.00000000       0.00000000       0.00000000       0.00000000       0.00000000       0.00000000       0.00000000
H        1.40307756       4.05033604       7.29121606        2       1.00000000       0.00000000       0.00000000       0.00000000       0.00000000       0.00000000       0.00000000
H        4.20923268       4.05033604       7.29121606        2       1.00000000       0.00000000       0.00000000       0.00000000       0.00000000       0.00000000       0.00000000
H        0.00000000       0.00000000       9.58243212        1       1.00000000       0.00000000       0.00000000       0.00000000       0.00000000       0.00000000       0.00000000
H        2.80615512       0.00000000       9.58243212        1       1.00000000       0.00000000       0.00000000       0.00000000       0.00000000       0.00000000       0.00000000
H        1.40307756       2.43020162       9.58243212        1       1.00000000       0.00000000       0.00000000       0.00000000       0.00000000       0.00000000       0.00000000
H        4.20923268       2.43020162       9.58243212        1       1.00000000       0.00000000       0.00000000       0.00000000       0.00000000       0.00000000       0.00000000
H        0.00948909       4.84657915       2.76735837        0       1.00000000      -0.00000134      -0.00000067       0.00000201       0.00000063       0.00000215      -0.00000434
H        2.79938953       3.25859498       0.55683071        0       1.00000000      -0.00000009      -0.00000004       0.00000096       0.00000238       0.00000105       0.00000066
H        4.21258965       2.44261179       2.79008998        0       1.00000000       0.00000011       0.00000017      -0.00000071      -0.00000392      -0.00000558      -0.00000573
H        4.21599640       0.82839540       0.55682937        0       1.00000000      -0.00000199      -0.00000123       0.00000179      -0.00000094      -0.00000127       0.00000264
H        1.39358618       2.41637598       2.76735742        0       1.00000000       0.00000233       0.00000147      -0.00000146       0.00000521       0.00000080       0.00000083
H        2.80279769       0.01240788       2.79008774        0       1.00000000       0.00000114       0.00000150      -0.00000040      -0.00000077       0.00000031      -0.00000450
18
Lattice="5.612310241546866 0.0 0.0 0.0 4.860403243099165 0.0 0.0 0.0 14.582432123328676" Properties=species:S:1:pos:R:3:tags:I:1:masses:R:1:momenta:R:3:forces:R:3 KEmax=23.26679191048647 iter=91085 volume=397.78090899293073 ns_energy=-11.666017971722901 last_walked_iter_clone=91032 energy=-11.666017971746701 stress="0.014010896296764474 6.888000957995139e-09 2.2739972774825898e-08 6.888000957995139e-09 0.014006228693106717 5.422911136420485e-07 2.2739972774825898e-08 5.422911136420485e-07 0.00787627117306937" pbc="T T T"
H        1.40307756       0.81006721       5.00000000        3       1.00000000       0.00000000       0.00000000       0.00000000       0.00000000       0.00000000       0.00000000
H        4.20923268       0.81006721       5.00000000        3       1.00000000       0.00000000       0.00000000       0.00000000       0.00000000       0.00000000       0.00000000
H        0.00000000       3.24026883       5.00000000        3       1.00000000       0.00000000       0.00000000       0.00000000       0.00000000       0.00000000       0.00000000
H        2.80615512       3.24026883       5.00000000        3       1.00000000       0.00000000       0.00000000       0.00000000       0.00000000       0.00000000       0.00000000
H        0.00000000       1.62013441       7.29121606        2       1.00000000       0.00000000       0.00000000       0.00000000       0.00000000       0.00000000       0.00000000
H        2.80615512       1.62013441       7.29121606        2       1.00000000       0.00000000       0.00000000       0.00000000       0.00000000       0.00000000       0.00000000
H        1.40307756       4.05033604       7.29121606        2       1.00000000       0.00000000       0.00000000       0.00000000       0.00000000       0.00000000       0.00000000
H        4.20923268       4.05033604       7.29121606        2       1.00000000       0.00000000       0.00000000       0.00000000       0.00000000       0.00000000       0.00000000
H        0.00000000       0.00000000       9.58243212        1       1.00000000       0.00000000       0.00000000       0.00000000       0.00000000       0.00000000       0.00000000
H        2.80615512       0.00000000       9.58243212        1       1.00000000       0.00000000       0.00000000       0.00000000       0.00000000       0.00000000       0.00000000
H        1.40307756       2.43020162       9.58243212        1       1.00000000       0.00000000       0.00000000       0.00000000       0.00000000       0.00000000       0.00000000
H        4.20923268       2.43020162       9.58243212        1       1.00000000       0.00000000       0.00000000       0.00000000       0.00000000       0.00000000       0.00000000
H        0.00949043       4.84657935       2.76735904        0       1.00000000      -0.00000252       0.00000040       0.00000126       0.00000063       0.00000215      -0.00000434
H        2.79939193       3.25859682       0.55683373        0       1.00000000      -0.00000129      -0.00000140      -0.00000015       0.00000238       0.00000105       0.00000066
H        4.21259016       2.44261297       2.79008853        0       1.00000000       0.00000226       0.00000003       0.00000010      -0.00000392      -0.00000558      -0.00000573
H        4.21599522       0.82839541       0.55683010        0       1.00000000       0.00000048      -0.00000006      -0.00000047      -0.00000094      -0.00000127       0.00000264
H        1.39358762       2.41637631       2.76735980        0       1.00000000       0.00000087       0.00000246       0.00000284       0.00000521       0.00000080       0.00000083
H        2.80279741       0.01241067       2.79008954        0       1.00000000      -0.00000038      -0.00000412      -0.00000094      -0.00000077       0.00000031      -0.00000450
18
Lattice="5.612310241546866 0.0 0.0 0.0 4.860403243099165 0.0 0.0 0.0 14.582432123328676" Properties=species:S:1:pos:R:3:tags:I:1:masses:R:1:momenta:R:3:forces:R:3 KEmax=23.26679191048647 iter=91085 volume=397.78090899293073 ns_energy=-11.666017971723488 last_walked_iter_clone=91036 energy=-11.666017971746701 stress="0.014010896296764474 6.888000957995139e-09 2.2739972774825898e-08 6.888000957995139e-09 0.014006228693106717 5.422911136420485e-07 2.2739972774825898e-08 5.422911136420485e-07 0.00787627117306937" pbc="T T T"
H        1.40307756       0.81006721       5.00000000        3       1.00000000       0.00000000       0.00000000       0.00000000       0.00000000       0.00000000       0.00000000
H        4.20923268       0.81006721       5.00000000        3       1.00000000       0.00000000       0.00000000       0.00000000       0.00000000       0.00000000       0.00000000
H        0.00000000       3.24026883       5.00000000        3       1.00000000       0.00000000       0.00000000       0.00000000       0.00000000       0.00000000       0.00000000
H        2.80615512       3.24026883       5.00000000        3       1.00000000       0.00000000       0.00000000       0.00000000       0.00000000       0.00000000       0.00000000
H        0.00000000       1.62013441       7.29121606        2       1.00000000       0.00000000       0.00000000       0.00000000       0.00000000       0.00000000       0.00000000
H        2.80615512       1.62013441       7.29121606        2       1.00000000       0.00000000       0.00000000       0.00000000       0.00000000       0.00000000       0.00000000
H        1.40307756       4.05033604       7.29121606        2       1.00000000       0.00000000       0.00000000       0.00000000       0.00000000       0.00000000       0.00000000
H        4.20923268       4.05033604       7.29121606        2       1.00000000       0.00000000       0.00000000       0.00000000       0.00000000       0.00000000       0.00000000
H        0.00000000       0.00000000       9.58243212        1       1.00000000       0.00000000       0.00000000       0.00000000       0.00000000       0.00000000       0.00000000
H        2.80615512       0.00000000       9.58243212        1       1.00000000       0.00000000       0.00000000       0.00000000       0.00000000       0.00000000       0.00000000
H        1.40307756       2.43020162       9.58243212        1       1.00000000       0.00000000       0.00000000       0.00000000       0.00000000       0.00000000       0.00000000
H        4.20923268       2.43020162       9.58243212        1       1.00000000       0.00000000       0.00000000       0.00000000       0.00000000       0.00000000       0.00000000
H        0.00949036       4.84657868       2.76735983        0       1.00000000       0.00000175       0.00000109       0.00000158       0.00000063       0.00000215      -0.00000434
H        2.79939047       3.25860038       0.55683173        0       1.00000000       0.00000135      -0.00000014       0.00000187       0.00000238       0.00000105       0.00000066
H        4.21259093       2.44261086       2.79008800        0       1.00000000       0.00000135      -0.00000091       0.00000049      -0.00000392      -0.00000558      -0.00000573
H        4.21599778       0.82839766       0.55683129        0       1.00000000      -0.00000318      -0.00000301       0.00000103      -0.00000094      -0.00000127       0.00000264
H        1.39358769       2.41637720       2.76735867        0       1.00000000       0.00000114      -0.00000076       0.00000032       0.00000521       0.00000080       0.00000083
H        2.80279939       0.01241017       2.79008912        0       1.00000000       0.00000130      -0.00000042      -0.00000236      -0.00000077       0.00000031      -0.00000450
18
Lattice="5.612310241546866 0.0 0.0 0.0 4.860403243099165 0.0 0.0 0.0 14.582432123328676" Properties=species:S:1:pos:R:3:tags:I:1:masses:R:1:momenta:R:3:forces:R:3 KEmax=23.26679191048647 iter=91085 volume=397.78090899293073 ns_energy=-11.666017971723129 last_walked_iter_clone=90828 energy=-11.666017971746701 stress="0.014010896296764474 6.888000957995139e-09 2.2739972774825898e-08 6.888000957995139e-09 0.014006228693106717 5.422911136420485e-07 2.2739972774825898e-08 5.422911136420485e-07 0.00787627117306937" pbc="T T T"
H        1.40307756       0.81006721       5.00000000        3       1.00000000       0.00000000       0.00000000       0.00000000       0.00000000       0.00000000       0.00000000
H        4.20923268       0.81006721       5.00000000        3       1.00000000       0.00000000       0.00000000       0.00000000       0.00000000       0.00000000       0.00000000
H        0.00000000       3.24026883       5.00000000        3       1.00000000       0.00000000       0.00000000       0.00000000       0.00000000       0.00000000       0.00000000
H        2.80615512       3.24026883       5.00000000        3       1.00000000       0.00000000       0.00000000       0.00000000       0.00000000       0.00000000       0.00000000
H        0.00000000       1.62013441       7.29121606        2       1.00000000       0.00000000       0.00000000       0.00000000       0.00000000       0.00000000       0.00000000
H        2.80615512       1.62013441       7.29121606        2       1.00000000       0.00000000       0.00000000       0.00000000       0.00000000       0.00000000       0.00000000
H        1.40307756       4.05033604       7.29121606        2       1.00000000       0.00000000       0.00000000       0.00000000       0.00000000       0.00000000       0.00000000
H        4.20923268       4.05033604       7.29121606        2       1.00000000       0.00000000       0.00000000       0.00000000       0.00000000       0.00000000       0.00000000
H        0.00000000       0.00000000       9.58243212        1       1.00000000       0.00000000       0.00000000       0.00000000       0.00000000       0.00000000       0.00000000
H        2.80615512       0.00000000       9.58243212        1       1.00000000       0.00000000       0.00000000       0.00000000       0.00000000       0.00000000       0.00000000
H        1.40307756       2.43020162       9.58243212        1       1.00000000       0.00000000       0.00000000       0.00000000       0.00000000       0.00000000       0.00000000
H        4.20923268       2.43020162       9.58243212        1       1.00000000       0.00000000       0.00000000       0.00000000       0.00000000       0.00000000       0.00000000
H        0.00948962       4.84658012       2.76735947        0       1.00000000      -0.00000292       0.00000030       0.00000087       0.00000063       0.00000215      -0.00000434
H        2.79939004       3.25860088       0.55683274        0       1.00000000       0.00000046       0.00000141      -0.00000225       0.00000238       0.00000105       0.00000066
H        4.21259102       2.44261387       2.79008834        0       1.00000000      -0.00000229      -0.00000111      -0.00000274      -0.00000392      -0.00000558      -0.00000573
H        4.21599713       0.82839708       0.55683025        0       1.00000000      -0.00000162      -0.00000213       0.00000183      -0.00000094      -0.00000127       0.00000264
H        1.39358665       2.41637858       2.76736015        0       1.00000000       0.00000107       0.00000260      -0.00000035       0.00000521       0.00000080       0.00000083
H        2.80279636       0.01241286       2.79008934        0       1.00000000       0.00000241      -0.00000062      -0.00000044      -0.00000077       0.00000031      -0.00000450
18
Lattice="5.612310241546866 0.0 0.0 0.0 4.860403243099165 0.0 0.0 0.0 14.582432123328676" Properties=species:S:1:pos:R:3:tags:I:1:masses:R:1:momenta:R:3:forces:R:3 KEmax=23.26679191048647 iter=91085 volume=397.78090899293073 ns_energy=-11.666017971725386 last_walked_iter_clone=91034 energy=-11.666017971746701 stress="0.014010896296764474 6.888000957995139e-09 2.2739972774825898e-08 6.888000957995139e-09 0.014006228693106717 5.422911136420485e-07 2.2739972774825898e-08 5.422911136420485e-07 0.00787627117306937" pbc="T T T"
H        1.40307756       0.81006721       5.00000000        3       1.00000000       0.00000000       0.00000000       0.00000000       0.00000000       0.00000000       0.00000000
H        4.20923268       0.81006721       5.00000000        3       1.00000000       0.00000000       0.00000000       0.00000000       0.00000000       0.00000000       0.00000000
H        0.00000000       3.24026883       5.00000000        3       1.00000000       0.00000000       0.00000000       0.00000000       0.00000000       0.00000000       0.00000000
H        2.80615512       3.24026883       5.00000000        3       1.00000000       0.00000000       0.00000000       0.00000000       0.00000000       0.00000000       0.00000000
H        0.00000000       1.62013441       7.29121606        2       1.00000000       0.00000000       0.00000000       0.00000000       0.00000000       0.00000000       0.00000000
H        2.80615512       1.62013441       7.29121606        2       1.00000000       0.00000000       0.00000000       0.00000000       0.00000000       0.00000000       0.00000000
H        1.40307756       4.05033604       7.29121606        2       1.00000000       0.00000000       0.00000000       0.00000000       0.00000000       0.00000000       0.00000000
H        4.20923268       4.05033604       7.29121606        2       1.00000000       0.00000000       0.00000000       0.00000000       0.00000000       0.00000000       0.00000000
H        0.00000000       0.00000000       9.58243212        1       1.00000000       0.00000000       0.00000000       0.00000000       0.00000000       0.00000000       0.00000000
H        2.80615512       0.00000000       9.58243212        1       1.00000000       0.00000000       0.00000000       0.00000000       0.00000000       0.00000000       0.00000000
H        1.40307756       2.43020162       9.58243212        1       1.00000000       0.00000000       0.00000000       0.00000000       0.00000000       0.00000000       0.00000000
H        4.20923268       2.43020162       9.58243212        1       1.00000000       0.00000000       0.00000000       0.00000000       0.00000000       0.00000000       0.00000000
H        0.00949165       4.84657743       2.76735973        0       1.00000000      -0.00000067      -0.00000091      -0.00000037       0.00000063       0.00000215      -0.00000434
H        2.79939406       3.25859388       0.55683251        0       1.00000000       0.00000185       0.00000003      -0.00000155       0.00000238       0.00000105       0.00000066
H        4.21259134       2.44261072       2.79008974        0       1.00000000       0.00000035       0.00000080       0.00000128      -0.00000392      -0.00000558      -0.00000573
H        4.21600080       0.82839244       0.55683206        0       1.00000000       0.00000145      -0.00000252       0.00000173      -0.00000094      -0.00000127       0.00000264
H        1.39358894       2.41637597       2.76735901        0       1.00000000       0.00000248      -0.00000061       0.00000191       0.00000521       0.00000080       0.00000083
H        2.80279948       0.01240888       2.79008898        0       1.00000000      -0.00000457       0.00000091       0.00000108      -0.00000077       0.00000031      -0.00000450
18
Lattice="5.612310241546866 0.0 0.0 0.0 4.860403243099165 0.0 0.0 0.0 14.582432123328676" Properties=species:S:1:pos:R:3:tags:I:1:masses:R:1:momenta:R:3:forces:R:3 KEmax=23.26679191048647 iter=91085 volume=397.78090899293073 ns_energy=-11.666017971723358 last_walked_iter_clone=90988 energy=-11.666017971746701 stress="0.014010896296764474 6.888000957995139e-09 2.2739972774825898e-08 6.888000957995139e-09 0.014006228693106717 5.422911136420485e-07 2.2739972774825898e-08 5.422911136420485e-07 0.00787627117306937" pbc="T T T"
H        1.40307756       0.81006721       5.00000000        3       1.00000000       0.00000000       0.00000000       0.00000000       0.00000000       0.00000000       0.00000000
H        4.20923268       0.81006721       5.00000000        3       1.00000000       0.00000000       0.00000000       0.00000000       0.00000000       0.00000000       0.00000000
H        0.00000000       3.24026883       5.00000000        3       1.00000000       0.00000000       0.00000000       0.00000000       0.00000000       0.00000000       0.00000000
H        2.80615512       3.24026883       5.00000000        3       1.00000000       0.00000000       0.00000000       0.00000000       0.00000000       0.00000000       0.00000000
H        0.00000000       1.62013441       7.29121606        2       1.00000000       0.00000000       0.00000000       0.00000000       0.00000000       0.00000000       0.00000000
H        2.80615512       1.62013441       7.29121606        2       1.00000000       0.00000000       0.00000000       0.00000000       0.00000000       0.00000000       0.00000000
H        1.40307756       4.05033604       7.29121606        2       1.00000000       0.00000000       0.00000000       0.00000000       0.00000000       0.00000000       0.00000000
H        4.20923268       4.05033604       7.29121606        2       1.00000000       0.00000000       0.00000000       0.00000000       0.00000000       0.00000000       0.00000000
H        0.00000000       0.00000000       9.58243212        1       1.00000000       0.00000000       0.00000000       0.00000000       0.00000000       0.00000000       0.00000000
H        2.80615512       0.00000000       9.58243212        1       1.00000000       0.00000000       0.00000000       0.00000000       0.00000000       0.00000000       0.00000000
H        1.40307756       2.43020162       9.58243212        1       1.00000000       0.00000000       0.00000000       0.00000000       0.00000000       0.00000000       0.00000000
H        4.20923268       2.43020162       9.58243212        1       1.00000000       0.00000000       0.00000000       0.00000000       0.00000000       0.00000000       0.00000000
H        0.00949042       4.84657916       2.76735935        0       1.00000000      -0.00000178      -0.00000078       0.00000033       0.00000063       0.00000215      -0.00000434
H        2.79939083       3.25859659       0.55683301        0       1.00000000       0.00000039      -0.00000279      -0.00000331       0.00000238       0.00000105       0.00000066
H        4.21259163       2.44261216       2.79008818        0       1.00000000      -0.00000099       0.00000119      -0.00000022      -0.00000392      -0.00000558      -0.00000573
H        4.21599703       0.82839498       0.55683085        0       1.00000000      -0.00000488       0.00000121      -0.00000083      -0.00000094      -0.00000127       0.00000264
H        1.39358787       2.41637747       2.76736047        0       1.00000000      -0.00000054       0.00000126       0.00000010       0.00000521       0.00000080       0.00000083
H        2.80279859       0.01240951       2.79008861        0       1.00000000      -0.00000158       0.00000172       0.00000066      -0.00000077       0.00000031      -0.00000450
18
Lattice="5.612310241546866 0.0 0.0 0.0 4.860403243099165 0.0 0.0 0.0 14.582432123328676" Properties=species:S:1:pos:R:3:tags:I:1:masses:R:1:momenta:R:3:forces:R:3 KEmax=23.26679191048647 iter=91085 volume=397.78090899293073 ns_energy=-11.666017971724044 last_walked_iter_clone=90769 energy=-11.666017971746701 stress="0.014010896296764474 6.888000957995139e-09 2.2739972774825898e-08 6.888000957995139e-09 0.014006228693106717 5.422911136420485e-07 2.2739972774825898e-08 5.422911136420485e-07 0.00787627117306937" pbc="T T T"
H        1.40307756       0.81006721       5.00000000        3       1.00000000       0.00000000       0.00000000       0.00000000       0.00000000       0.00000000       0.00000000
H        4.20923268       0.81006721       5.00000000        3       1.00000000       0.00000000       0.00000000       0.00000000       0.00000000       0.00000000       0.00000000
H        0.00000000       3.24026883       5.00000000        3       1.00000000       0.00000000       0.00000000       0.00000000       0.00000000       0.00000000       0.00000000
H        2.80615512       3.24026883       5.00000000        3       1.00000000       0.00000000       0.00000000       0.00000000       0.00000000       0.00000000       0.00000000
H        0.00000000       1.62013441       7.29121606        2       1.00000000       0.00000000       0.00000000       0.00000000       0.00000000       0.00000000       0.00000000
H        2.80615512       1.62013441       7.29121606        2       1.00000000       0.00000000       0.00000000       0.00000000       0.00000000       0.00000000       0.00000000
H        1.40307756       4.05033604       7.29121606        2       1.00000000       0.00000000       0.00000000       0.00000000       0.00000000       0.00000000       0.00000000
H        4.20923268       4.05033604       7.29121606        2       1.00000000       0.00000000       0.00000000       0.00000000       0.00000000       0.00000000       0.00000000
H        0.00000000       0.00000000       9.58243212        1       1.00000000       0.00000000       0.00000000       0.00000000       0.00000000       0.00000000       0.00000000
H        2.80615512       0.00000000       9.58243212        1       1.00000000       0.00000000       0.00000000       0.00000000       0.00000000       0.00000000       0.00000000
H        1.40307756       2.43020162       9.58243212        1       1.00000000       0.00000000       0.00000000       0.00000000       0.00000000       0.00000000       0.00000000
H        4.20923268       2.43020162       9.58243212        1       1.00000000       0.00000000       0.00000000       0.00000000       0.00000000       0.00000000       0.00000000
H        0.00949144       4.84657858       2.76735976        0       1.00000000      -0.00000161       0.00000261      -0.00000282       0.00000063       0.00000215      -0.00000434
H        2.79939313       3.25859713       0.55683301        0       1.00000000      -0.00000054      -0.00000117      -0.00000196       0.00000238       0.00000105       0.00000066
H        4.21258992       2.44261293       2.79009069        0       1.00000000      -0.00000039      -0.00000058      -0.00000205      -0.00000392      -0.00000558      -0.00000573