18
Lattice="5.612310241546866 0.0 0.0 0.0 4.860403243099165 0.0 0.0 0.0 44.58243212332868" Properties=species:S:1:pos:R:3:tags:I:1:masses:R:1:momenta:R:3 KEmax=23.26679191048647 iter=99 volume=1216.1236359717223 ns_energy=13.795137026833142 last_walked_iter_clone=56 ns_P=0.0 config_n_global=99 ns_KE=22.074074185632995 pbc="T T T"
H        1.40307756       0.81006721      20.00000000        3       1.00000000       0.00000000       0.00000000       0.00000000
H        4.20923268       0.81006721      20.00000000        3       1.00000000       0.00000000       0.00000000       0.00000000
H        0.00000000       3.24026883      20.00000000        3       1.00000000       0.00000000       0.00000000       0.00000000
H        2.80615512       3.24026883      20.00000000        3       1.00000000       0.00000000       0.00000000       0.00000000
H        0.00000000       1.62013441      22.29121606        2       1.00000000       0.00000000       0.00000000       0.00000000
H        2.80615512       1.62013441      22.29121606        2       1.00000000       0.00000000       0.00000000       0.00000000
H        1.40307756       4.05033604      22.29121606        2       1.00000000       0.00000000       0.00000000       0.00000000
H        4.20923268       4.05033604      22.29121606        2       1.00000000       0.00000000       0.00000000       0.00000000
H        0.00000000       0.00000000      24.58243212        1       1.00000000       0.00000000       0.00000000       0.00000000
H        2.80615512       0.00000000      24.58243212        1       1.00000000       0.00000000       0.00000000       0.00000000
H        1.40307756       2.43020162      24.58243212        1       1.00000000       0.00000000       0.00000000       0.00000000
H        4.20923268       2.43020162      24.58243212        1       1.00000000       0.00000000       0.00000000       0.00000000
H        2.03565366       1.05356289      27.51746193        0       1.00000000      -1.62519720      -0.20071974       1.67677901
H        0.51974961       0.93112292      40.54730665        0       1.00000000       1.65699931      -0.50341978      -0.97708364
H        4.32565515       0.05731385      27.48512124        0       1.00000000       2.32032015      -1.21875973       0.70348379
H        4.01942695       0.13951718       8.89278817        0       1.00000000       2.19271321      -1.43837094       1.57999526
H        1.49493958       1.46833331      17.11452573        0       1.00000000      -2.24688262      -3.07219148       0.02946821
H        2.18074696       4.06661137       1.16066980        0       1.00000000      -0.33379180       1.63698790      -0.82761179
18
Lattice="5.612310241546866 0.0 0.0 0.0 4.860403243099165 0.0 0.0 0.0 44.58243212332868" Properties=species:S:1:pos:R:3:tags:I:1:masses:R:1:momenta:R:3 KEmax=23.26679191048647 iter=199 volume=1216.1236359717223 ns_energy=10.184041373511342 last_walked_iter_clone=133 ns_P=0.0 config_n_global=199 ns_KE=17.697634421188578 pbc="T T T"
H        1.40307756       0.81006721      20.00000000        3       1.00000000       0.00000000       0.00000000       0.00000000
H        4.20923268       0.81006721      20.00000000        3       1.00000000       0.00000000       0.00000000       0.00000000
H        0.00000000       3.24026883      20.00000000        3       1.00000000       0.00000000       0.00000000       0.00000000
H        2.80615512       3.24026883      20.00000000        3       1.00000000       0.00000000       0.00000000       0.00000000
H        0.00000000       1.62013441      22.29121606        2       1.00000000       0.00000000       0.00000000       0.00000000
H        2.80615512       1.62013441      22.29121606        2       1.00000000       0.00000000       0.00000000       0.00000000
H        1.40307756       4.05033604      22.29121606        2       1.00000000       0.00000000       0.00000000       0.00000000
H        4.20923268       4.05033604      22.29121606        2       1.00000000       0.00000000       0.00000000       0.00000000
H        0.00000000       0.00000000      24.58243212        1       1.00000000       0.00000000       0.00000000       0.00000000
H        2.80615512       0.00000000      24.58243212        1       1.00000000       0.00000000       0.00000000       0.00000000
H        1.40307756       2.43020162      24.58243212        1       1.00000000       0.00000000       0.00000000       0.00000000
H        4.20923268       2.43020162      24.58243212        1       1.00000000       0.00000000       0.00000000       0.00000000
H        1.38187133       0.28654423      32.86618842        0       1.00000000       0.11618846      -0.07611611       2.93784648
H        1.28507410       0.83100973      10.62785138        0       1.00000000      -2.09539990       0.48598085       0.29608372
H        1.04003524       3.12772728      31.29725497        0       1.00000000       1.68244755      -0.43307091      -0.76138464
H        0.59452254       1.59417372      17.99865418        0       1.00000000      -0.90090764       1.61476071       2.08809414
H        5.84545661       0.83710393       5.06063341        0       1.00000000       1.34857315       0.86044285      -0.67248079
H        2.68382330       3.15224873      37.33506650        0       1.00000000      -0.77707177      -1.86146296      -1.89030485
18
Lattice="5.612310241546866 0.0 0.0 0.0 4.860403243099165 0.0 0.0 0.0 44.58243212332868" Properties=species:S:1:pos:R:3:tags:I:1:masses:R:1:momenta:R:3 KEmax=23.26679191048647 iter=299 volume=1216.1236359717223 ns_energy=7.022166338009709 last_walked_iter_clone=262 ns_P=0.0 config_n_global=299 ns_KE=8.36485147117201 pbc="T T T"
H        1.40307756       0.81006721      20.00000000        3       1.00000000       0.00000000       0.00000000       0.00000000
H        4.20923268       0.81006721      20.00000000        3       1.00000000       0.00000000       0.00000000       0.00000000
H        0.00000000       3.24026883      20.00000000        3       1.00000000       0.00000000       0.00000000       0.00000000
H        2.80615512       3.24026883      20.00000000        3       1.00000000       0.00000000       0.00000000       0.00000000
H        0.00000000       1.62013441      22.29121606        2       1.00000000       0.00000000       0.00000000       0.00000000
H        2.80615512       1.62013441      22.29121606        2       1.00000000       0.00000000       0.00000000       0.00000000
H        1.40307756       4.05033604      22.29121606        2       1.00000000       0.00000000       0.00000000       0.00000000
H        4.20923268       4.05033604      22.29121606        2       1.00000000       0.00000000       0.00000000       0.00000000
H        0.00000000       0.00000000      24.58243212        1       1.00000000       0.00000000       0.00000000       0.00000000
H        2.80615512       0.00000000      24.58243212        1       1.00000000       0.00000000       0.00000000       0.00000000
H        1.40307756       2.43020162      24.58243212        1       1.00000000       0.00000000       0.00000000       0.00000000
H        4.20923268       2.43020162      24.58243212        1       1.00000000       0.00000000       0.00000000       0.00000000
H        3.47356260       1.15272114      44.41086184        0       1.00000000       0.64384406       0.95493064      -1.55987918
H        4.44473674       1.59449171      37.24428306        0       1.00000000      -0.24836740       0.29186595       1.11663621
H        0.64200097       0.51385750      44.26237969        0       1.00000000      -1.95971022      -0.78795710       0.97739664
H        2.68396623       3.62911313      36.62693313        0       1.00000000       0.09121702      -0.24481732       0.63584746
H        0.18210130       0.99376450      35.98895860        0       1.00000000      -1.63541922      -0.84232969       0.97097655
H        0.82450863       2.99970346      12.88725025        0       1.00000000       0.10135949       0.06688150      -1.15993241
18
Lattice="5.612310241546866 0.0 0.0 0.0 4.860403243099165 0.0 0.0 0.0 44.58243212332868" Properties=species:S:1:pos:R:3:tags:I:1:masses:R:1:momenta:R:3 KEmax=23.26679191048647 iter=399 volume=1216.1236359717223 ns_energy=4.766080214874334 last_walked_iter_clone=358 ns_P=0.0 config_n_global=399 ns_KE=12.230265680523136 pbc="T T T"
H        1.40307756       0.81006721      20.00000000        3       1.00000000       0.00000000       0.00000000       0.00000000
H        4.20923268       0.81006721      20.00000000        3       1.00000000       0.00000000       0.00000000       0.00000000
H        0.00000000       3.24026883      20.00000000        3       1.00000000       0.00000000       0.00000000       0.00000000
H        2.80615512       3.24026883      20.00000000        3       1.00000000       0.00000000       0.00000000       0.00000000
H        0.00000000       1.62013441      22.29121606        2       1.00000000       0.00000000       0.00000000       0.00000000
H        2.80615512       1.62013441      22.29121606        2       1.00000000       0.00000000       0.00000000       0.00000000
H        1.40307756       4.05033604      22.29121606        2       1.00000000       0.00000000       0.00000000       0.00000000
H        4.20923268       4.05033604      22.29121606        2       1.00000000       0.00000000       0.00000000       0.00000000
H        0.00000000       0.00000000      24.58243212        1       1.00000000       0.00000000       0.00000000       0.00000000
H        2.80615512       0.00000000      24.58243212        1       1.00000000       0.00000000       0.00000000       0.00000000
H        1.40307756       2.43020162      24.58243212        1       1.00000000       0.00000000       0.00000000       0.00000000
H        4.20923268       2.43020162      24.58243212        1       1.00000000       0.00000000       0.00000000       0.00000000
H        5.62245620       2.20737395      17.54165343        0       1.00000000       0.59105983      -0.98513974      -0.46840478
H        3.53966626       2.37407365      42.72667584        0       1.00000000      -0.37620773       0.30583237      -2.07824676
H        1.61595737       1.16657969      35.43296538        0       1.00000000      -1.25327402       0.41833209       1.04989681
H        2.58348006       2.31138651      29.87468653        0       1.00000000      -0.44899232       1.43022539       0.09515244
H        0.90417450       0.60605049      43.47319431        0       1.00000000       1.99287011       0.49478742      -0.86279963
H        3.56680213       3.91871923      28.62624942        0       1.00000000      -1.66098789       0.66464563      -2.25865530
18
Lattice="5.612310241546866 0.0 0.0 0.0 4.860403243099165 0.0 0.0 0.0 44.58243212332868" Properties=species:S:1:pos:R:3:tags:I:1:masses:R:1:momenta:R:3 KEmax=23.26679191048647 iter=499 volume=1216.1236359717223 ns_energy=2.917128223894136 last_walked_iter_clone=443 ns_P=0.0 config_n_global=499 ns_KE=10.515662105071296 pbc="T T T"
H        1.40307756       0.81006721      20.00000000        3       1.00000000       0.00000000       0.00000000       0.00000000
H        4.20923268       0.81006721      20.00000000        3       1.00000000       0.00000000       0.00000000       0.00000000
H        0.00000000       3.24026883      20.00000000        3       1.00000000       0.00000000       0.00000000       0.00000000
H        2.80615512       3.24026883      20.00000000        3       1.00000000       0.00000000       0.00000000       0.00000000
H        0.00000000       1.62013441      22.29121606        2       1.00000000       0.00000000       0.00000000       0.00000000
H        2.80615512       1.62013441      22.29121606        2       1.00000000       0.00000000       0.00000000       0.00000000
H        1.40307756       4.05033604      22.29121606        2       1.00000000       0.00000000       0.00000000       0.00000000
H        4.20923268       4.05033604      22.29121606        2       1.00000000       0.00000000       0.00000000       0.00000000
H        0.00000000       0.00000000      24.58243212        1       1.00000000       0.00000000       0.00000000       0.00000000
H        2.80615512       0.00000000      24.58243212        1       1.00000000       0.00000000       0.00000000       0.00000000
H        1.40307756       2.43020162      24.58243212        1       1.00000000       0.00000000       0.00000000       0.00000000
H        4.20923268       2.43020162      24.58243212        1       1.00000000       0.00000000       0.00000000       0.00000000
H        3.87922533       2.26518829       6.66561981        0       1.00000000      -0.58651943       0.71877775      -1.19146092
H        2.35523538       1.29038451      37.89198647        0       1.00000000       1.19574178       2.02092191      -0.27080015
H        4.99673168       1.69959773      42.99543909        0       1.00000000       0.47058388      -0.62609233      -1.28077514
H        5.16637630       4.67074830      29.65128923        0       1.00000000       0.96249949       0.50454154       0.95837750
H        4.40471384       4.59688523       7.46522859        0       1.00000000      -1.69616331       0.45520508       1.28950895
H        1.45166574       3.72161715       2.00331946        0       1.00000000       1.94079288       0.47465728      -0.26752557
18
Lattice="5.612310241546866 0.0 0.0 0.0 4.860403243099165 0.0 0.0 0.0 44.58243212332868" Properties=species:S:1:pos:R:3:tags:I:1:masses:R:1:momenta:R:3 KEmax=23.26679191048647 iter=599 volume=1216.1236359717223 ns_energy=1.6383266484649772 last_walked_iter_clone=492 ns_P=0.0 config_n_global=599 ns_KE=9.424527293617535 pbc="T T T"
H        1.40307756       0.81006721      20.00000000        3       1.00000000       0.00000000       0.00000000       0.00000000
H        4.20923268       0.81006721      20.00000000        3       1.00000000       0.00000000       0.00000000       0.00000000
H        0.00000000       3.24026883      20.00000000        3       1.00000000       0.00000000       0.00000000       0.00000000
H        2.80615512       3.24026883      20.00000000        3       1.00000000       0.00000000       0.00000000       0.00000000
H        0.00000000       1.62013441      22.29121606        2       1.00000000       0.00000000       0.00000000       0.00000000
H        2.80615512       1.62013441      22.29121606        2       1.00000000       0.00000000       0.00000000       0.00000000
H        1.40307756       4.05033604      22.29121606        2       1.00000000       0.00000000       0.00000000       0.00000000
H        4.20923268       4.05033604      22.29121606        2       1.00000000       0.00000000       0.00000000       0.00000000
H        0.00000000       0.00000000      24.58243212        1       1.00000000       0.00000000       0.00000000       0.00000000
H        2.80615512       0.00000000      24.58243212        1       1.00000000       0.00000000       0.00000000       0.00000000
H        1.40307756       2.43020162      24.58243212        1       1.00000000       0.00000000       0.00000000       0.00000000
H        4.20923268       2.43020162      24.58243212        1       1.00000000       0.00000000       0.00000000       0.00000000
H        1.42570355       2.95313810       2.86493042        0       1.00000000      -0.78777825       0.20244528       1.42472662
H        0.78706478       3.55215944      16.99292863        0       1.00000000      -0.60151334      -0.35232736       1.16309452
H        4.53001061       3.82200252      42.63741499        0       1.00000000       0.16816601      -1.20100297      -1.67850266
H        0.88368363       4.75893923      32.79015883        0       1.00000000      -1.44834018       0.37773233      -0.22660068
H       -0.41980979       2.16227143      39.72964704        0       1.00000000      -1.74498345      -0.09395697      -1.81348599
H        5.01642071       0.45202376      16.03585571        0       1.00000000      -0.00375982      -0.48131154       1.07930941
18
Lattice="5.612310241546866 0.0 0.0 0.0 4.860403243099165 0.0 0.0 0.0 44.58243212332868" Properties=species:S:1:pos:R:3:tags:I:1:masses:R:1:momenta:R:3 KEmax=23.26679191048647 iter=699 volume=1216.1236359717223 ns_energy=0.7201177648428712 last_walked_iter_clone=612 ns_P=0.0 config_n_global=699 ns_KE=8.633426077946016 pbc="T T T"
H        1.40307756       0.81006721      20.00000000        3       1.00000000       0.00000000       0.00000000       0.00000000
H        4.20923268       0.81006721      20.00000000        3       1.00000000       0.00000000       0.00000000       0.00000000
H        0.00000000       3.24026883      20.00000000        3       1.00000000       0.00000000       0.00000000       0.00000000
H        2.80615512       3.24026883      20.00000000        3       1.00000000       0.00000000       0.00000000       0.00000000
H        0.00000000       1.62013441      22.29121606        2       1.00000000       0.00000000       0.00000000       0.00000000
H        2.80615512       1.62013441      22.29121606        2       1.00000000       0.00000000       0.00000000       0.00000000
H        1.40307756       4.05033604      22.29121606        2       1.00000000       0.00000000       0.00000000       0.00000000
H        4.20923268       4.05033604      22.29121606        2       1.00000000       0.00000000       0.00000000       0.00000000
H        0.00000000       0.00000000      24.58243212        1       1.00000000       0.00000000       0.00000000       0.00000000
H        2.80615512       0.00000000      24.58243212        1       1.00000000       0.00000000       0.00000000       0.00000000
H        1.40307756       2.43020162      24.58243212        1       1.00000000       0.00000000       0.00000000       0.00000000
H        4.20923268       2.43020162      24.58243212        1       1.00000000       0.00000000       0.00000000       0.00000000
H        2.27463474       0.60620101      44.68779065        0       1.00000000       0.50640562      -1.81853432       1.78192599
H        0.29831623       3.61465406       4.65096714        0       1.00000000      -1.22235537       0.26706569       0.83408237
H        3.15123301       0.11629339      11.80372472        0       1.00000000       0.25267371      -0.51163457       2.08504043
H        1.06058437       0.58080811      31.36004935        0       1.00000000      -1.27921895       0.08609925       0.59254968
H        1.80219907       2.72586908      30.29449220        0       1.00000000       0.19721872       0.89813749      -0.35909771
H        1.78005062       1.93673495      27.59667037        0       1.00000000      -0.73783081      -0.11021529       0.26063795
18
Lattice="5.612310241546866 0.0 0.0 0.0 4.860403243099165 0.0 0.0 0.0 44.58243212332868" Properties=species:S:1:pos:R:3:tags:I:1:masses:R:1:momenta:R:3 KEmax=23.26679191048647 iter=799 volume=1216.1236359717223 ns_energy=-0.0007102983483705927 last_walked_iter_clone=730 ns_P=0.0 config_n_global=799 ns_KE=6.89169245994299 pbc="T T T"
H        1.40307756       0.81006721      20.00000000        3       1.00000000       0.00000000       0.00000000       0.00000000
H        4.20923268       0.81006721      20.00000000        3       1.00000000       0.00000000       0.00000000       0.00000000
H        0.00000000       3.24026883      20.00000000        3       1.00000000       0.00000000       0.00000000       0.00000000
H        2.80615512       3.24026883      20.00000000        3       1.00000000       0.00000000       0.00000000       0.00000000
H        0.00000000       1.62013441      22.29121606        2       1.00000000       0.00000000       0.00000000       0.00000000
H        2.80615512       1.62013441      22.29121606        2       1.00000000       0.00000000       0.00000000       0.00000000
H        1.40307756       4.05033604      22.29121606        2       1.00000000       0.00000000       0.00000000       0.00000000
H        4.20923268       4.05033604      22.29121606        2       1.00000000       0.00000000       0.00000000       0.00000000
H        0.00000000       0.00000000      24.58243212        1       1.00000000       0.00000000       0.00000000       0.00000000
H        2.80615512       0.00000000      24.58243212        1       1.00000000       0.00000000       0.00000000       0.00000000
H        1.40307756       2.43020162      24.58243212        1       1.00000000       0.00000000       0.00000000       0.00000000
H        4.20923268       2.43020162      24.58243212        1       1.00000000       0.00000000       0.00000000       0.00000000
H        1.53077138       1.33894785      16.18180605        0       1.00000000       0.09749913      -1.09137779      -1.21988388
H        2.01333034       3.51271722       2.08048007        0       1.00000000      -0.59809706      -1.49101468      -1.26008660
H        3.56932002       2.76820566      40.18934326        0       1.00000000       1.37798958      -0.64667860       0.89366403
H        4.68570663       0.97836342       0.51247042        0       1.00000000       0.60430006      -1.09959243       0.74512999
H        0.72685883       2.78899841      29.60632281        0       1.00000000       0.03156908      -0.25697173       0.01183617
H        3.19124706       2.61540105      44.75718875        0       1.00000000       0.47641270       0.53359634      -1.04973502
18
Lattice="5.612310241546866 0.0 0.0 0.0 4.860403243099165 0.0 0.0 0.0 44.58243212332868" Properties=species:S:1:pos:R:3:tags:I:1:masses:R:1:momenta:R:3 KEmax=23.26679191048647 iter=899 volume=1216.1236359717223 ns_energy=-0.5785204708769103 last_walked_iter_clone=770 ns_P=0.0 config_n_global=899 ns_KE=7.309656243174848 pbc="T T T"
H        1.40307756       0.81006721      20.00000000        3       1.00000000       0.00000000       0.00000000       0.00000000
H        4.20923268       0.81006721      20.00000000        3       1.00000000       0.00000000       0.00000000       0.00000000
H        0.00000000       3.24026883      20.00000000        3       1.00000000       0.00000000       0.00000000       0.00000000
H        2.80615512       3.24026883      20.00000000        3       1.00000000       0.00000000       0.00000000       0.00000000
H        0.00000000       1.62013441      22.29121606        2       1.00000000       0.00000000       0.00000000       0.00000000
H        2.80615512       1.62013441      22.29121606        2       1.00000000       0.00000000       0.00000000       0.00000000
H        1.40307756       4.05033604      22.29121606        2       1.00000000       0.00000000       0.00000000       0.00000000
H        4.20923268       4.05033604      22.29121606        2       1.00000000       0.00000000       0.00000000       0.00000000
H        0.00000000       0.00000000      24.58243212        1       1.00000000       0.00000000       0.00000000       0.00000000
H        2.80615512       0.00000000      24.58243212        1       1.00000000       0.00000000       0.00000000       0.00000000
H        1.40307756       2.43020162      24.58243212        1       1.00000000       0.00000000       0.00000000       0.00000000
H        4.20923268       2.43020162      24.58243212        1       1.00000000       0.00000000       0.00000000       0.00000000
H        2.74365055       4.79191746       3.55252369        0       1.00000000      -0.63393819       0.18394139      -0.90767605
H        4.73982378       1.13635164      13.93141505        0       1.00000000      -1.30405438      -0.30265359      -1.36710848
H        1.90939804       1.04021816       7.88987854        0       1.00000000      -0.70874300      -1.54564254       0.94110246
H        4.73411195       2.84816062       5.73246833        0       1.00000000      -1.11920421      -0.13188925       0.87863561
H        2.77395667       3.18906027      17.41889660        0       1.00000000      -1.00874069      -0.02843191       0.84977448
H        4.01059606       0.73254896      31.28611490        0       1.00000000      -0.63620523       0.08178215      -1.31439683
18
Lattice="5.612310241546866 0.0 0.0 0.0 4.860403243099165 0.0 0.0 0.0 44.58243212332868" Properties=species:S:1:pos:R:3:tags:I:1:masses:R:1:momenta:R:3 KEmax=23.26679191048647 iter=999 volume=1216.1236359717223 ns_energy=-1.152860148909792 last_walked_iter_clone=938 ns_P=0.0 config_n_global=999 ns_KE=6.773684804940834 pbc="T T T"
H        1.40307756       0.81006721      20.00000000        3       1.00000000       0.00000000       0.00000000       0.00000000
H        4.20923268       0.81006721      20.00000000        3       1.00000000       0.00000000       0.00000000       0.00000000
H        0.00000000       3.24026883      20.00000000        3       1.00000000       0.00000000       0.00000000       0.00000000
H        2.80615512       3.24026883      20.00000000        3       1.00000000       0.00000000       0.00000000       0.00000000
H        0.00000000       1.62013441      22.29121606        2       1.00000000       0.00000000       0.00000000       0.00000000
H        2.80615512       1.62013441      22.29121606        2       1.00000000       0.00000000       0.00000000       0.00000000
H        1.40307756       4.05033604      22.29121606        2       1.00000000       0.00000000       0.00000000       0.00000000
H        4.20923268       4.05033604      22.29121606        2       1.00000000       0.00000000       0.00000000       0.00000000
H        0.00000000       0.00000000      24.58243212        1       1.00000000       0.00000000       0.00000000       0.00000000
H        2.80615512       0.00000000      24.58243212        1       1.00000000       0.00000000       0.00000000       0.00000000
H        1.40307756       2.43020162      24.58243212        1       1.00000000       0.00000000       0.00000000       0.00000000
H        4.20923268       2.43020162      24.58243212        1       1.00000000       0.00000000       0.00000000       0.00000000
H        5.09110863       2.14884304      28.12287415        0       1.00000000       0.82210276      -0.00030151      -1.26753370
H        4.12983206       2.13876047      14.37502685        0       1.00000000      -0.31172597      -0.38408953      -0.62985907
H        0.28875624       2.93719229      39.49006631        0       1.00000000      -0.05797345       0.31768032       0.59699623
H        0.66423344       4.37378866       6.79420109        0       1.00000000      -1.94444255       1.31833972      -1.81950154
H        4.70226081      -0.03871604      34.89167559        0       1.00000000      -0.09277395       0.04598973       0.43886787
H        5.47713988       3.22307646      17.26901671        0       1.00000000      -0.18909354       0.96976299      -0.39215102
18
Lattice="5.612310241546866 0.0 0.0 0.0 4.860403243099165 0.0 0.0 0.0 44.58243212332868" Properties=species:S:1:pos:R:3:tags:I:1:masses:R:1:momenta:R:3 KEmax=23.26679191048647 iter=1099 volume=1216.1236359717223 ns_energy=-1.570138856970196 last_walked_iter_clone=957 ns_P=0.0 config_n_global=1099 ns_KE=6.105597684404011 pbc="T T T"
H        1.40307756       0.81006721      20.00000000        3       1.00000000       0.00000000       0.00000000       0.00000000
H        4.20923268       0.81006721      20.00000000        3       1.00000000       0.00000000       0.00000000       0.00000000
H        0.00000000       3.24026883      20.00000000        3       1.00000000       0.00000000       0.00000000       0.00000000
H        2.80615512       3.24026883      20.00000000        3       1.00000000       0.00000000       0.00000000       0.00000000
H        0.00000000       1.62013441      22.29121606        2       1.00000000       0.00000000       0.00000000       0.00000000
H        2.80615512       1.62013441      22.29121606        2       1.00000000       0.00000000       0.00000000       0.00000000
H        1.40307756       4.05033604      22.29121606        2       1.00000000       0.00000000       0.00000000       0.00000000
H        4.20923268       4.05033604      22.29121606        2       1.00000000       0.00000000       0.00000000       0.00000000
H        0.00000000       0.00000000      24.58243212        1       1.00000000       0.00000000       0.00000000       0.00000000
H        2.80615512       0.00000000      24.58243212        1       1.00000000       0.00000000       0.00000000       0.00000000
H        1.40307756       2.43020162      24.58243212        1       1.00000000       0.00000000       0.00000000       0.00000000
H        4.20923268       2.43020162      24.58243212        1       1.00000000       0.00000000       0.00000000       0.00000000
H        4.73963131       4.49503127      36.14315016        0       1.00000000      -0.13823164       1.08055583      -0.39514183
H        1.80467573       3.19129644      14.00612738        0       1.00000000      -0.34788706       0.30819735      -0.82289440
H        3.95293814       0.40873233       8.84743260        0       1.00000000       0.14167438       0.41091606       1.17828860
H        2.56856002       2.44882561       8.65676835        0       1.00000000      -0.15008143       0.73896009       0.37446428
H        4.45799847       2.50134486      16.13813982        0       1.00000000       0.85009632      -0.90194818       0.47473196
H        1.78050686       4.85406103      41.72430282        0       1.00000000      -1.21507396       0.13831282       2.10523293
18
Lattice="5.612310241546866 0.0 0.0 0.0 4.860403243099165 0.0 0.0 0.0 44.58243212332868" Properties=species:S:1:pos:R:3:tags:I:1:masses:R:1:momenta:R:3 KEmax=23.26679191048647 iter=1199 volume=1216.1236359717223 ns_energy=-2.0093257757427865 last_walked_iter_clone=1124 ns_P=0.0 config_n_global=1199 ns_KE=5.886462582209263 pbc="T T T"