18
Lattice="5.612310241546866 0.0 0.0 0.0 4.860403243099165 0.0 0.0 0.0 44.58243212332868" Properties=species:S:1:pos:R:3:tags:I:1:masses:R:1:momenta:R:3:forces:R:3 KEmax=23.26679191048647 iter=87633 volume=1216.1236359717223 ns_energy=-11.647137731998809 last_walked_iter_clone=87599 energy=-11.647137732010647 stress="0.004540987891890207 -1.342277993890314e-09 3.8243494582203974e-09 -1.342277993890314e-09 0.00453714693586592 2.6805921045323707e-08 3.8243494582203974e-09 2.6805921045323707e-08 0.0023242754678898846" pbc="T T T"
H        1.40307756       0.81006721      20.00000000        3       1.00000000       0.00000000       0.00000000       0.00000000       0.00000000       0.00000000       0.00000000
H        4.20923268       0.81006721      20.00000000        3       1.00000000       0.00000000       0.00000000       0.00000000       0.00000000       0.00000000       0.00000000
H        0.00000000       3.24026883      20.00000000        3       1.00000000       0.00000000       0.00000000       0.00000000       0.00000000       0.00000000       0.00000000
H        2.80615512       3.24026883      20.00000000        3       1.00000000       0.00000000       0.00000000       0.00000000       0.00000000       0.00000000       0.00000000
H        0.00000000       1.62013441      22.29121606        2       1.00000000       0.00000000       0.00000000       0.00000000       0.00000000       0.00000000       0.00000000
H        2.80615512       1.62013441      22.29121606        2       1.00000000       0.00000000       0.00000000       0.00000000       0.00000000       0.00000000       0.00000000
H        1.40307756       4.05033604      22.29121606        2       1.00000000       0.00000000       0.00000000       0.00000000       0.00000000       0.00000000       0.00000000
H        4.20923268       4.05033604      22.29121606        2       1.00000000       0.00000000       0.00000000       0.00000000       0.00000000       0.00000000       0.00000000
H        0.00000000       0.00000000      24.58243212        1       1.00000000       0.00000000       0.00000000       0.00000000       0.00000000       0.00000000       0.00000000
H        2.80615512       0.00000000      24.58243212        1       1.00000000       0.00000000       0.00000000       0.00000000       0.00000000       0.00000000       0.00000000
H        1.40307756       2.43020162      24.58243212        1       1.00000000       0.00000000       0.00000000       0.00000000       0.00000000       0.00000000       0.00000000
H        4.20923268       2.43020162      24.58243212        1       1.00000000       0.00000000       0.00000000       0.00000000       0.00000000       0.00000000       0.00000000
H        0.00379254       1.63315090      26.78912773        0       1.00000000       0.00000071       0.00000258       0.00000027      -0.00000894      -0.00000461       0.00000316
H        0.00625395       0.01927031      29.01656696        0       1.00000000      -0.00000139      -0.00000077      -0.00000587       0.00000075       0.00000097      -0.00000030
H        1.41338932       4.03572883      26.81345208        0       1.00000000       0.00000188      -0.00000310      -0.00000350       0.00000751      -0.00000660      -0.00000938
H        4.20543996       4.06335337      26.78912700        0       1.00000000       0.00000110       0.00000252      -0.00000002      -0.00000871       0.00000542      -0.00000601
H        4.20296977       2.44947226      29.01656442        0       1.00000000      -0.00000079      -0.00000277      -0.00000011      -0.00000109      -0.00000114      -0.00000004
H        2.79584377       1.60552640      26.81344835        0       1.00000000       0.00000032      -0.00000367       0.00000104       0.00000852       0.00000006      -0.00000633
18
Lattice="5.612310241546866 0.0 0.0 0.0 4.860403243099165 0.0 0.0 0.0 44.58243212332868" Properties=species:S:1:pos:R:3:tags:I:1:masses:R:1:momenta:R:3:forces:R:3 KEmax=23.26679191048647 iter=87633 volume=1216.1236359717223 ns_energy=-11.647137731998802 last_walked_iter_clone=87615 energy=-11.647137732010647 stress="0.004540987891890207 -1.342277993890314e-09 3.8243494582203974e-09 -1.342277993890314e-09 0.00453714693586592 2.6805921045323707e-08 3.8243494582203974e-09 2.6805921045323707e-08 0.0023242754678898846" pbc="T T T"
H        1.40307756       0.81006721      20.00000000        3       1.00000000       0.00000000       0.00000000       0.00000000       0.00000000       0.00000000       0.00000000
H        4.20923268       0.81006721      20.00000000        3       1.00000000       0.00000000       0.00000000       0.00000000       0.00000000       0.00000000       0.00000000
H        0.00000000       3.24026883      20.00000000        3       1.00000000       0.00000000       0.00000000       0.00000000       0.00000000       0.00000000       0.00000000
H        2.80615512       3.24026883      20.00000000        3       1.00000000       0.00000000       0.00000000       0.00000000       0.00000000       0.00000000       0.00000000
H        0.00000000       1.62013441      22.29121606        2       1.00000000       0.00000000       0.00000000       0.00000000       0.00000000       0.00000000       0.00000000
H        2.80615512       1.62013441      22.29121606        2       1.00000000       0.00000000       0.00000000       0.00000000       0.00000000       0.00000000       0.00000000
H        1.40307756       4.05033604      22.29121606        2       1.00000000       0.00000000       0.00000000       0.00000000       0.00000000       0.00000000       0.00000000
H        4.20923268       4.05033604      22.29121606        2       1.00000000       0.00000000       0.00000000       0.00000000       0.00000000       0.00000000       0.00000000
H        0.00000000       0.00000000      24.58243212        1       1.00000000       0.00000000       0.00000000       0.00000000       0.00000000       0.00000000       0.00000000
H        2.80615512       0.00000000      24.58243212        1       1.00000000       0.00000000       0.00000000       0.00000000       0.00000000       0.00000000       0.00000000
H        1.40307756       2.43020162      24.58243212        1       1.00000000       0.00000000       0.00000000       0.00000000       0.00000000       0.00000000       0.00000000
H        4.20923268       2.43020162      24.58243212        1       1.00000000       0.00000000       0.00000000       0.00000000       0.00000000       0.00000000       0.00000000
H        0.00379303       1.63315336      26.78912707        0       1.00000000      -0.00000238      -0.00000183       0.00000201      -0.00000894      -0.00000461       0.00000316
H        0.00625910       0.01927248      29.01656401        0       1.00000000      -0.00000206      -0.00000034      -0.00000025       0.00000075       0.00000097      -0.00000030
H        1.41338876       4.03573403      26.81345094        0       1.00000000       0.00000323      -0.00000025      -0.00000367       0.00000751      -0.00000660      -0.00000938
H        4.20543917       4.06335643      26.78912859        0       1.00000000      -0.00000367      -0.00000170      -0.00000283      -0.00000871       0.00000542      -0.00000601
H        4.20297701       2.44947007      29.01656523        0       1.00000000       0.00000220      -0.00000141      -0.00000303      -0.00000109      -0.00000114      -0.00000004
H        2.79584380       1.60553044      26.81344890        0       1.00000000       0.00000079       0.00000003      -0.00000024       0.00000852       0.00000006      -0.00000633
18
Lattice="5.612310241546866 0.0 0.0 0.0 4.860403243099165 0.0 0.0 0.0 44.58243212332868" Properties=species:S:1:pos:R:3:tags:I:1:masses:R:1:momenta:R:3:forces:R:3 KEmax=23.26679191048647 iter=87633 volume=1216.1236359717223 ns_energy=-11.647137731998276 last_walked_iter_clone=87557 energy=-11.647137732010647 stress="0.004540987891890207 -1.342277993890314e-09 3.8243494582203974e-09 -1.342277993890314e-09 0.00453714693586592 2.6805921045323707e-08 3.8243494582203974e-09 2.6805921045323707e-08 0.0023242754678898846" pbc="T T T"
H        1.40307756       0.81006721      20.00000000        3       1.00000000       0.00000000       0.00000000       0.00000000       0.00000000       0.00000000       0.00000000
H        4.20923268       0.81006721      20.00000000        3       1.00000000       0.00000000       0.00000000       0.00000000       0.00000000       0.00000000       0.00000000
H        0.00000000       3.24026883      20.00000000        3       1.00000000       0.00000000       0.00000000       0.00000000       0.00000000       0.00000000       0.00000000
H        2.80615512       3.24026883      20.00000000        3       1.00000000       0.00000000       0.00000000       0.00000000       0.00000000       0.00000000       0.00000000
H        0.00000000       1.62013441      22.29121606        2       1.00000000       0.00000000       0.00000000       0.00000000       0.00000000       0.00000000       0.00000000
H        2.80615512       1.62013441      22.29121606        2       1.00000000       0.00000000       0.00000000       0.00000000       0.00000000       0.00000000       0.00000000
H        1.40307756       4.05033604      22.29121606        2       1.00000000       0.00000000       0.00000000       0.00000000       0.00000000       0.00000000       0.00000000
H        4.20923268       4.05033604      22.29121606        2       1.00000000       0.00000000       0.00000000       0.00000000       0.00000000       0.00000000       0.00000000
H        0.00000000       0.00000000      24.58243212        1       1.00000000       0.00000000       0.00000000       0.00000000       0.00000000       0.00000000       0.00000000
H        2.80615512       0.00000000      24.58243212        1       1.00000000       0.00000000       0.00000000       0.00000000       0.00000000       0.00000000       0.00000000
H        1.40307756       2.43020162      24.58243212        1       1.00000000       0.00000000       0.00000000       0.00000000       0.00000000       0.00000000       0.00000000
H        4.20923268       2.43020162      24.58243212        1       1.00000000       0.00000000       0.00000000       0.00000000       0.00000000       0.00000000       0.00000000
H        0.00379189       1.63315242      26.78912913        0       1.00000000      -0.00000128       0.00000326      -0.00000349      -0.00000894      -0.00000461       0.00000316
H        0.00625500       0.01927105      29.01656691        0       1.00000000       0.00000076       0.00000003      -0.00000239       0.00000075       0.00000097      -0.00000030
H        1.41338755       4.03573142      26.81345133        0       1.00000000      -0.00000605      -0.00000605      -0.00000030       0.00000751      -0.00000660      -0.00000938
H        4.20544119       4.06335505      26.78912728        0       1.00000000       0.00000084       0.00000197       0.00000112      -0.00000871       0.00000542      -0.00000601
H        4.20297477       2.44947503      29.01656580        0       1.00000000      -0.00000257       0.00000070       0.00000161      -0.00000109      -0.00000114      -0.00000004
H        2.79584406       1.60552990      26.81345157        0       1.00000000      -0.00000019       0.00000064      -0.00000180       0.00000852       0.00000006      -0.00000633
18
Lattice="5.612310241546866 0.0 0.0 0.0 4.860403243099165 0.0 0.0 0.0 44.58243212332868" Properties=species:S:1:pos:R:3:tags:I:1:masses:R:1:momenta:R:3:forces:R:3 KEmax=23.26679191048647 iter=87633 volume=1216.1236359717223 ns_energy=-11.647137732000614 last_walked_iter_clone=87492 energy=-11.647137732010647 stress="0.004540987891890207 -1.342277993890314e-09 3.8243494582203974e-09 -1.342277993890314e-09 0.00453714693586592 2.6805921045323707e-08 3.8243494582203974e-09 2.6805921045323707e-08 0.0023242754678898846" pbc="T T T"
H        1.40307756       0.81006721      20.00000000        3       1.00000000       0.00000000       0.00000000       0.00000000       0.00000000       0.00000000       0.00000000
H        4.20923268       0.81006721      20.00000000        3       1.00000000       0.00000000       0.00000000       0.00000000       0.00000000       0.00000000       0.00000000
H        0.00000000       3.24026883      20.00000000        3       1.00000000       0.00000000       0.00000000       0.00000000       0.00000000       0.00000000       0.00000000
H        2.80615512       3.24026883      20.00000000        3       1.00000000       0.00000000       0.00000000       0.00000000       0.00000000       0.00000000       0.00000000
H        0.00000000       1.62013441      22.29121606        2       1.00000000       0.00000000       0.00000000       0.00000000       0.00000000       0.00000000       0.00000000
H        2.80615512       1.62013441      22.29121606        2       1.00000000       0.00000000       0.00000000       0.00000000       0.00000000       0.00000000       0.00000000
H        1.40307756       4.05033604      22.29121606        2       1.00000000       0.00000000       0.00000000       0.00000000       0.00000000       0.00000000       0.00000000
H        4.20923268       4.05033604      22.29121606        2       1.00000000       0.00000000       0.00000000       0.00000000       0.00000000       0.00000000       0.00000000
H        0.00000000       0.00000000      24.58243212        1       1.00000000       0.00000000       0.00000000       0.00000000       0.00000000       0.00000000       0.00000000
H        2.80615512       0.00000000      24.58243212        1       1.00000000       0.00000000       0.00000000       0.00000000       0.00000000       0.00000000       0.00000000
H        1.40307756       2.43020162      24.58243212        1       1.00000000       0.00000000       0.00000000       0.00000000       0.00000000       0.00000000       0.00000000
H        4.20923268       2.43020162      24.58243212        1       1.00000000       0.00000000       0.00000000       0.00000000       0.00000000       0.00000000       0.00000000
H        0.00379144       1.63315277      26.78912508        0       1.00000000       0.00000426       0.00000109       0.00000297      -0.00000894      -0.00000461       0.00000316
H        0.00625457       0.01927152      29.01656629        0       1.00000000       0.00000312       0.00000015      -0.00000130       0.00000075       0.00000097      -0.00000030
H        1.41338879       4.03573006      26.81344820        0       1.00000000      -0.00000002      -0.00000189       0.00000112       0.00000751      -0.00000660      -0.00000938
H        4.20544109       4.06335388      26.78912638        0       1.00000000       0.00000057      -0.00000034       0.00000209      -0.00000871       0.00000542      -0.00000601
H        4.20297722       2.44947299      29.01656518        0       1.00000000      -0.00000256       0.00000241      -0.00000315      -0.00000109      -0.00000114      -0.00000004
H        2.79584428       1.60553162      26.81344969        0       1.00000000       0.00000221      -0.00000120       0.00000013       0.00000852       0.00000006      -0.00000633
18
Lattice="5.612310241546866 0.0 0.0 0.0 4.860403243099165 0.0 0.0 0.0 44.58243212332868" Properties=species:S:1:pos:R:3:tags:I:1:masses:R:1:momenta:R:3:forces:R:3 KEmax=23.26679191048647 iter=87633 volume=1216.1236359717223 ns_energy=-11.6471377319989 last_walked_iter_clone=87516 energy=-11.647137732010647 stress="0.004540987891890207 -1.342277993890314e-09 3.8243494582203974e-09 -1.342277993890314e-09 0.00453714693586592 2.6805921045323707e-08 3.8243494582203974e-09 2.6805921045323707e-08 0.0023242754678898846" pbc="T T T"
H        1.40307756       0.81006721      20.00000000        3       1.00000000       0.00000000       0.00000000       0.00000000       0.00000000       0.00000000       0.00000000
H        4.20923268       0.81006721      20.00000000        3       1.00000000       0.00000000       0.00000000       0.00000000       0.00000000       0.00000000       0.00000000
H        0.00000000       3.24026883      20.00000000        3       1.00000000       0.00000000       0.00000000       0.00000000       0.00000000       0.00000000       0.00000000
H        2.80615512       3.24026883      20.00000000        3       1.00000000       0.00000000       0.00000000       0.00000000       0.00000000       0.00000000       0.00000000
H        0.00000000       1.62013441      22.29121606        2       1.00000000       0.00000000       0.00000000       0.00000000       0.00000000       0.00000000       0.00000000
H        2.80615512       1.62013441      22.29121606        2       1.00000000       0.00000000       0.00000000       0.00000000       0.00000000       0.00000000       0.00000000
H        1.40307756       4.05033604      22.29121606        2       1.00000000       0.00000000       0.00000000       0.00000000       0.00000000       0.00000000       0.00000000
H        4.20923268       4.05033604      22.29121606        2       1.00000000       0.00000000       0.00000000       0.00000000       0.00000000       0.00000000       0.00000000
H        0.00000000       0.00000000      24.58243212        1       1.00000000       0.00000000       0.00000000       0.00000000       0.00000000       0.00000000       0.00000000
H        2.80615512       0.00000000      24.58243212        1       1.00000000       0.00000000       0.00000000       0.00000000       0.00000000       0.00000000       0.00000000
H        1.40307756       2.43020162      24.58243212        1       1.00000000       0.00000000       0.00000000       0.00000000       0.00000000       0.00000000       0.00000000
H        4.20923268       2.43020162      24.58243212        1       1.00000000       0.00000000       0.00000000       0.00000000       0.00000000       0.00000000       0.00000000
H        0.00379242       1.63315222      26.78912721        0       1.00000000       0.00000012      -0.00000198       0.00000362      -0.00000894      -0.00000461       0.00000316
H        0.00625958       0.01927048      29.01656635        0       1.00000000      -0.00000300       0.00000174      -0.00000095       0.00000075       0.00000097      -0.00000030
H        1.41339139       4.03572895      26.81344972        0       1.00000000       0.00000439      -0.00000165      -0.00000062       0.00000751      -0.00000660      -0.00000938
H        4.20544070       4.06335416      26.78912652        0       1.00000000      -0.00000201       0.00000249       0.00000215      -0.00000871       0.00000542      -0.00000601
H        4.20297803       2.44947459      29.01656499        0       1.00000000       0.00000023      -0.00000369       0.00000031      -0.00000109      -0.00000114      -0.00000004
H        2.79584603       1.60552842      26.81345123        0       1.00000000       0.00000396       0.00000180       0.00000027       0.00000852       0.00000006      -0.00000633
18
Lattice="5.612310241546866 0.0 0.0 0.0 4.860403243099165 0.0 0.0 0.0 44.58243212332868" Properties=species:S:1:pos:R:3:tags:I:1:masses:R:1:momenta:R:3:forces:R:3 KEmax=23.26679191048647 iter=87633 volume=1216.1236359717223 ns_energy=-11.647137731998095 last_walked_iter_clone=87515 energy=-11.647137732010647 stress="0.004540987891890207 -1.342277993890314e-09 3.8243494582203974e-09 -1.342277993890314e-09 0.00453714693586592 2.6805921045323707e-08 3.8243494582203974e-09 2.6805921045323707e-08 0.0023242754678898846" pbc="T T T"
H        1.40307756       0.81006721      20.00000000        3       1.00000000       0.00000000       0.00000000       0.00000000       0.00000000       0.00000000       0.00000000
H        4.20923268       0.81006721      20.00000000        3       1.00000000       0.00000000       0.00000000       0.00000000       0.00000000       0.00000000       0.00000000
H        0.00000000       3.24026883      20.00000000        3       1.00000000       0.00000000       0.00000000       0.00000000       0.00000000       0.00000000       0.00000000
H        2.80615512       3.24026883      20.00000000        3       1.00000000       0.00000000       0.00000000       0.00000000       0.00000000       0.00000000       0.00000000
H        0.00000000       1.62013441      22.29121606        2       1.00000000       0.00000000       0.00000000       0.00000000       0.00000000       0.00000000       0.00000000
H        2.80615512       1.62013441      22.29121606        2       1.00000000       0.00000000       0.00000000       0.00000000       0.00000000       0.00000000       0.00000000
H        1.40307756       4.05033604      22.29121606        2       1.00000000       0.00000000       0.00000000       0.00000000       0.00000000       0.00000000       0.00000000
H        4.20923268       4.05033604      22.29121606        2       1.00000000       0.00000000       0.00000000       0.00000000       0.00000000       0.00000000       0.00000000
H        0.00000000       0.00000000      24.58243212        1       1.00000000       0.00000000       0.00000000       0.00000000       0.00000000       0.00000000       0.00000000
H        2.80615512       0.00000000      24.58243212        1       1.00000000       0.00000000       0.00000000       0.00000000       0.00000000       0.00000000       0.00000000
H        1.40307756       2.43020162      24.58243212        1       1.00000000       0.00000000       0.00000000       0.00000000       0.00000000       0.00000000       0.00000000
H        4.20923268       2.43020162      24.58243212        1       1.00000000       0.00000000       0.00000000       0.00000000       0.00000000       0.00000000       0.00000000
H        0.00379368       1.63315102      26.78912841        0       1.00000000      -0.00000111      -0.00000167      -0.00000379      -0.00000894      -0.00000461       0.00000316
H        0.00625804       0.01927052      29.01656413        0       1.00000000      -0.00000065       0.00000407       0.00000118       0.00000075       0.00000097      -0.00000030
H        1.41338934       4.03573179      26.81345107        0       1.00000000      -0.00000279      -0.00000002      -0.00000039       0.00000751      -0.00000660      -0.00000938
H        4.20544217       4.06335628      26.78912771        0       1.00000000       0.00000231      -0.00000105       0.00000335      -0.00000871       0.00000542      -0.00000601
H        4.20297456       2.44947432      29.01656519        0       1.00000000       0.00000253       0.00000248       0.00000066      -0.00000109      -0.00000114      -0.00000004
H        2.79584557       1.60553085      26.81344708        0       1.00000000      -0.00000117       0.00000181       0.00000196       0.00000852       0.00000006      -0.00000633
18
Lattice="5.612310241546866 0.0 0.0 0.0 4.860403243099165 0.0 0.0 0.0 44.58243212332868" Properties=species:S:1:pos:R:3:tags:I:1:masses:R:1:momenta:R:3:forces:R:3 KEmax=23.26679191048647 iter=87633 volume=1216.1236359717223 ns_energy=-11.647137731997976 last_walked_iter_clone=87535 energy=-11.647137732010647 stress="0.004540987891890207 -1.342277993890314e-09 3.8243494582203974e-09 -1.342277993890314e-09 0.00453714693586592 2.6805921045323707e-08 3.8243494582203974e-09 2.6805921045323707e-08 0.0023242754678898846" pbc="T T T"
H        1.40307756       0.81006721      20.00000000        3       1.00000000       0.00000000       0.00000000       0.00000000       0.00000000       0.00000000       0.00000000
H        4.20923268       0.81006721      20.00000000        3       1.00000000       0.00000000       0.00000000       0.00000000       0.00000000       0.00000000       0.00000000
H        0.00000000       3.24026883      20.00000000        3       1.00000000       0.00000000       0.00000000       0.00000000       0.00000000       0.00000000       0.00000000
H        2.80615512       3.24026883      20.00000000        3       1.00000000       0.00000000       0.00000000       0.00000000       0.00000000       0.00000000       0.00000000
H        0.00000000       1.62013441      22.29121606        2       1.00000000       0.00000000       0.00000000       0.00000000       0.00000000       0.00000000       0.00000000
H        2.80615512       1.62013441      22.29121606        2       1.00000000       0.00000000       0.00000000       0.00000000       0.00000000       0.00000000       0.00000000
H        1.40307756       4.05033604      22.29121606        2       1.00000000       0.00000000       0.00000000       0.00000000       0.00000000       0.00000000       0.00000000
H        4.20923268       4.05033604      22.29121606        2       1.00000000       0.00000000       0.00000000       0.00000000       0.00000000       0.00000000       0.00000000
H        0.00000000       0.00000000      24.58243212        1       1.00000000       0.00000000       0.00000000       0.00000000       0.00000000       0.00000000       0.00000000
H        2.80615512       0.00000000      24.58243212        1       1.00000000       0.00000000       0.00000000       0.00000000       0.00000000       0.00000000       0.00000000
H        1.40307756       2.43020162      24.58243212        1       1.00000000       0.00000000       0.00000000       0.00000000       0.00000000       0.00000000       0.00000000
H        4.20923268       2.43020162      24.58243212        1       1.00000000       0.00000000       0.00000000       0.00000000       0.00000000       0.00000000       0.00000000
H        0.00379116       1.63315205      26.78912735        0       1.00000000       0.00000193      -0.00000178      -0.00000300      -0.00000894      -0.00000461       0.00000316
H        0.00625181       0.01926924      29.01656439        0       1.00000000       0.00000164      -0.00000178       0.00000077       0.00000075       0.00000097      -0.00000030
H        1.41338854       4.03573061      26.81345086        0       1.00000000       0.00000061       0.00000055       0.00000117       0.00000751      -0.00000660      -0.00000938
H        4.20544079       4.06335410      26.78912938        0       1.00000000      -0.00000238       0.00000090      -0.00000018      -0.00000871       0.00000542      -0.00000601
H        4.20296597       2.44946992      29.01656548        0       1.00000000      -0.00000289      -0.00000026      -0.00000192      -0.00000109      -0.00000114      -0.00000004
H        2.79584248       1.60553052      26.81344662        0       1.00000000       0.00000421      -0.00000036      -0.00000024       0.00000852       0.00000006      -0.00000633
18
Lattice="5.612310241546866 0.0 0.0 0.0 4.860403243099165 0.0 0.0 0.0 44.58243212332868" Properties=species:S:1:pos:R:3:tags:I:1:masses:R:1:momenta:R:3:forces:R:3 KEmax=23.26679191048647 iter=87633 volume=1216.1236359717223 ns_energy=-11.647137731999045 last_walked_iter_clone=87555 energy=-11.647137732010647 stress="0.004540987891890207 -1.342277993890314e-09 3.8243494582203974e-09 -1.342277993890314e-09 0.00453714693586592 2.6805921045323707e-08 3.8243494582203974e-09 2.6805921045323707e-08 0.0023242754678898846" pbc="T T T"
H        1.40307756       0.81006721      20.00000000        3       1.00000000       0.00000000       0.00000000       0.00000000       0.00000000       0.00000000       0.00000000
H        4.20923268       0.81006721      20.00000000        3       1.00000000       0.00000000       0.00000000       0.00000000       0.00000000       0.00000000       0.00000000
H        0.00000000       3.24026883      20.00000000        3       1.00000000       0.00000000       0.00000000       0.00000000       0.00000000       0.00000000       0.00000000
H        2.80615512       3.24026883      20.00000000        3       1.00000000       0.00000000       0.00000000       0.00000000       0.00000000       0.00000000       0.00000000
H        0.00000000       1.62013441      22.29121606        2       1.00000000       0.00000000       0.00000000       0.00000000       0.00000000       0.00000000       0.00000000
H        2.80615512       1.62013441      22.29121606        2       1.00000000       0.00000000       0.00000000       0.00000000       0.00000000       0.00000000       0.00000000
H        1.40307756       4.05033604      22.29121606        2       1.00000000       0.00000000       0.00000000       0.00000000       0.00000000       0.00000000       0.00000000
H        4.20923268       4.05033604      22.29121606        2       1.00000000       0.00000000       0.00000000       0.00000000       0.00000000       0.00000000       0.00000000
H        0.00000000       0.00000000      24.58243212        1       1.00000000       0.00000000       0.00000000       0.00000000       0.00000000       0.00000000       0.00000000
H        2.80615512       0.00000000      24.58243212        1       1.00000000       0.00000000       0.00000000       0.00000000       0.00000000       0.00000000       0.00000000
H        1.40307756       2.43020162      24.58243212        1       1.00000000       0.00000000       0.00000000       0.00000000       0.00000000       0.00000000       0.00000000
H        4.20923268       2.43020162      24.58243212        1       1.00000000       0.00000000       0.00000000       0.00000000       0.00000000       0.00000000       0.00000000
H        0.00379079       1.63315039      26.78912427        0       1.00000000       0.00000176       0.00000114       0.00000053      -0.00000894      -0.00000461       0.00000316
H        0.00625496       0.01927041      29.01656304        0       1.00000000       0.00000316      -0.00000077      -0.00000149       0.00000075       0.00000097      -0.00000030
H        1.41338687       4.03573233      26.81344694        0       1.00000000      -0.00000437      -0.00000166       0.00000139       0.00000751      -0.00000660      -0.00000938