18
Lattice="5.612310241546866 0.0 0.0 0.0 4.860403243099165 0.0 0.0 0.0 44.58243212332868" Properties=species:S:1:pos:R:3:tags:I:1:masses:R:1:momenta:R:3:forces:R:3 KEmax=23.26679191048647 iter=119999 volume=1216.1236359717223 ns_energy=-11.647137732079251 last_walked_iter_clone=119491 energy=-11.647137732082168 stress="0.004540984848994513 7.223723182137274e-10 -3.2202252202135044e-09 7.223723182137274e-10 0.00453713949918355 1.4962196324709255e-08 -3.2202252202135044e-09 1.4962196324709255e-08 0.0023242396363959642" pbc="T T T"
H        1.40307756       0.81006721      20.00000000        3       1.00000000       0.00000000       0.00000000       0.00000000       0.00000000       0.00000000       0.00000000
H        4.20923268       0.81006721      20.00000000        3       1.00000000       0.00000000       0.00000000       0.00000000       0.00000000       0.00000000       0.00000000
H        0.00000000       3.24026883      20.00000000        3       1.00000000       0.00000000       0.00000000       0.00000000       0.00000000       0.00000000       0.00000000
H        2.80615512       3.24026883      20.00000000        3       1.00000000       0.00000000       0.00000000       0.00000000       0.00000000       0.00000000       0.00000000
H        0.00000000       1.62013441      22.29121606        2       1.00000000       0.00000000       0.00000000       0.00000000       0.00000000       0.00000000       0.00000000
H        2.80615512       1.62013441      22.29121606        2       1.00000000       0.00000000       0.00000000       0.00000000       0.00000000       0.00000000       0.00000000
H        1.40307756       4.05033604      22.29121606        2       1.00000000       0.00000000       0.00000000       0.00000000       0.00000000       0.00000000       0.00000000
H        4.20923268       4.05033604      22.29121606        2       1.00000000       0.00000000       0.00000000       0.00000000       0.00000000       0.00000000       0.00000000
H        0.00000000       0.00000000      24.58243212        1       1.00000000       0.00000000       0.00000000       0.00000000       0.00000000       0.00000000       0.00000000
H        2.80615512       0.00000000      24.58243212        1       1.00000000       0.00000000       0.00000000       0.00000000       0.00000000       0.00000000       0.00000000
H        1.40307756       2.43020162      24.58243212        1       1.00000000       0.00000000       0.00000000       0.00000000       0.00000000       0.00000000       0.00000000
H        4.20923268       2.43020162      24.58243212        1       1.00000000       0.00000000       0.00000000       0.00000000       0.00000000       0.00000000       0.00000000
H        0.00379173       1.63315204      26.78912733        0       1.00000000       0.00000094      -0.00000032      -0.00000051      -0.00000108      -0.00000257       0.00000094
H        0.00625727       0.01927072      29.01656553        0       1.00000000      -0.00000121       0.00000121      -0.00000070      -0.00000021       0.00000131      -0.00000031
H        1.41338812       4.03573100      26.81344963        0       1.00000000       0.00000094       0.00000009      -0.00000095      -0.00000039       0.00000017      -0.00000026
H        4.20544031       4.06335405      26.78912727        0       1.00000000       0.00000018       0.00000025      -0.00000076       0.00000084       0.00000089      -0.00000285
H        4.20297573       2.44947229      29.01656530        0       1.00000000       0.00000066      -0.00000008      -0.00000060       0.00000030      -0.00000095       0.00000115
H        2.79584368       1.60552946      26.81344935        0       1.00000000      -0.00000106      -0.00000007       0.00000050       0.00000218       0.00000117       0.00000125
18
Lattice="5.612310241546866 0.0 0.0 0.0 4.860403243099165 0.0 0.0 0.0 44.58243212332868" Properties=species:S:1:pos:R:3:tags:I:1:masses:R:1:momenta:R:3:forces:R:3 KEmax=23.26679191048647 iter=119999 volume=1216.1236359717223 ns_energy=-11.647137732079148 last_walked_iter_clone=117113 energy=-11.647137732082168 stress="0.004540984848994513 7.223723182137274e-10 -3.2202252202135044e-09 7.223723182137274e-10 0.00453713949918355 1.4962196324709255e-08 -3.2202252202135044e-09 1.4962196324709255e-08 0.0023242396363959642" pbc="T T T"
H        1.40307756       0.81006721      20.00000000        3       1.00000000       0.00000000       0.00000000       0.00000000       0.00000000       0.00000000       0.00000000
H        4.20923268       0.81006721      20.00000000        3       1.00000000       0.00000000       0.00000000       0.00000000       0.00000000       0.00000000       0.00000000
H        0.00000000       3.24026883      20.00000000        3       1.00000000       0.00000000       0.00000000       0.00000000       0.00000000       0.00000000       0.00000000
H        2.80615512       3.24026883      20.00000000        3       1.00000000       0.00000000       0.00000000       0.00000000       0.00000000       0.00000000       0.00000000
H        0.00000000       1.62013441      22.29121606        2       1.00000000       0.00000000       0.00000000       0.00000000       0.00000000       0.00000000       0.00000000
H        2.80615512       1.62013441      22.29121606        2       1.00000000       0.00000000       0.00000000       0.00000000       0.00000000       0.00000000       0.00000000
H        1.40307756       4.05033604      22.29121606        2       1.00000000       0.00000000       0.00000000       0.00000000       0.00000000       0.00000000       0.00000000
H        4.20923268       4.05033604      22.29121606        2       1.00000000       0.00000000       0.00000000       0.00000000       0.00000000       0.00000000       0.00000000
H        0.00000000       0.00000000      24.58243212        1       1.00000000       0.00000000       0.00000000       0.00000000       0.00000000       0.00000000       0.00000000
H        2.80615512       0.00000000      24.58243212        1       1.00000000       0.00000000       0.00000000       0.00000000       0.00000000       0.00000000       0.00000000
H        1.40307756       2.43020162      24.58243212        1       1.00000000       0.00000000       0.00000000       0.00000000       0.00000000       0.00000000       0.00000000
H        4.20923268       2.43020162      24.58243212        1       1.00000000       0.00000000       0.00000000       0.00000000       0.00000000       0.00000000       0.00000000
H        0.00379188       1.63315279      26.78912676        0       1.00000000      -0.00000054      -0.00000031       0.00000034      -0.00000108      -0.00000257       0.00000094
H        0.00625785       0.01927090      29.01656507        0       1.00000000      -0.00000044      -0.00000024       0.00000045      -0.00000021       0.00000131      -0.00000031
H        1.41338876       4.03573055      26.81344952        0       1.00000000      -0.00000068       0.00000080      -0.00000081      -0.00000039       0.00000017      -0.00000026
H        4.20544094       4.06335464      26.78912713        0       1.00000000      -0.00000122       0.00000074      -0.00000071       0.00000084       0.00000089      -0.00000285
H        4.20297515       2.44947290      29.01656537        0       1.00000000      -0.00000036      -0.00000134      -0.00000058       0.00000030      -0.00000095       0.00000115
H        2.79584440       1.60552947      26.81344983        0       1.00000000      -0.00000039      -0.00000054      -0.00000106       0.00000218       0.00000117       0.00000125
18
Lattice="5.612310241546866 0.0 0.0 0.0 4.860403243099165 0.0 0.0 0.0 44.58243212332868" Properties=species:S:1:pos:R:3:tags:I:1:masses:R:1:momenta:R:3:forces:R:3 KEmax=23.26679191048647 iter=119999 volume=1216.1236359717223 ns_energy=-11.647137732079191 last_walked_iter_clone=118734 energy=-11.647137732082168 stress="0.004540984848994513 7.223723182137274e-10 -3.2202252202135044e-09 7.223723182137274e-10 0.00453713949918355 1.4962196324709255e-08 -3.2202252202135044e-09 1.4962196324709255e-08 0.0023242396363959642" pbc="T T T"
H        1.40307756       0.81006721      20.00000000        3       1.00000000       0.00000000       0.00000000       0.00000000       0.00000000       0.00000000       0.00000000
H        4.20923268       0.81006721      20.00000000        3       1.00000000       0.00000000       0.00000000       0.00000000       0.00000000       0.00000000       0.00000000
H        0.00000000       3.24026883      20.00000000        3       1.00000000       0.00000000       0.00000000       0.00000000       0.00000000       0.00000000       0.00000000
H        2.80615512       3.24026883      20.00000000        3       1.00000000       0.00000000       0.00000000       0.00000000       0.00000000       0.00000000       0.00000000
H        0.00000000       1.62013441      22.29121606        2       1.00000000       0.00000000       0.00000000       0.00000000       0.00000000       0.00000000       0.00000000
H        2.80615512       1.62013441      22.29121606        2       1.00000000       0.00000000       0.00000000       0.00000000       0.00000000       0.00000000       0.00000000
H        1.40307756       4.05033604      22.29121606        2       1.00000000       0.00000000       0.00000000       0.00000000       0.00000000       0.00000000       0.00000000
H        4.20923268       4.05033604      22.29121606        2       1.00000000       0.00000000       0.00000000       0.00000000       0.00000000       0.00000000       0.00000000
H        0.00000000       0.00000000      24.58243212        1       1.00000000       0.00000000       0.00000000       0.00000000       0.00000000       0.00000000       0.00000000
H        2.80615512       0.00000000      24.58243212        1       1.00000000       0.00000000       0.00000000       0.00000000       0.00000000       0.00000000       0.00000000
H        1.40307756       2.43020162      24.58243212        1       1.00000000       0.00000000       0.00000000       0.00000000       0.00000000       0.00000000       0.00000000
H        4.20923268       2.43020162      24.58243212        1       1.00000000       0.00000000       0.00000000       0.00000000       0.00000000       0.00000000       0.00000000
H        0.00379180       1.63315407      26.78912717        0       1.00000000      -0.00000079       0.00000024       0.00000030      -0.00000108      -0.00000257       0.00000094
H        0.00625743       0.01927211      29.01656448        0       1.00000000      -0.00000014       0.00000042      -0.00000057      -0.00000021       0.00000131      -0.00000031
H        1.41338849       4.03573208      26.81344936        0       1.00000000      -0.00000094       0.00000049       0.00000101      -0.00000039       0.00000017      -0.00000026
H        4.20544063       4.06335602      26.78912691        0       1.00000000       0.00000088      -0.00000114       0.00000082       0.00000084       0.00000089      -0.00000285
H        4.20297558       2.44947355      29.01656403        0       1.00000000       0.00000018       0.00000035       0.00000096       0.00000030      -0.00000095       0.00000115
H        2.79584382       1.60553067      26.81344920        0       1.00000000       0.00000085       0.00000004       0.00000119       0.00000218       0.00000117       0.00000125
18
Lattice="5.612310241546866 0.0 0.0 0.0 4.860403243099165 0.0 0.0 0.0 44.58243212332868" Properties=species:S:1:pos:R:3:tags:I:1:masses:R:1:momenta:R:3:forces:R:3 KEmax=23.26679191048647 iter=119999 volume=1216.1236359717223 ns_energy=-11.647137732079175 last_walked_iter_clone=118190 energy=-11.647137732082168 stress="0.004540984848994513 7.223723182137274e-10 -3.2202252202135044e-09 7.223723182137274e-10 0.00453713949918355 1.4962196324709255e-08 -3.2202252202135044e-09 1.4962196324709255e-08 0.0023242396363959642" pbc="T T T"
H        1.40307756       0.81006721      20.00000000        3       1.00000000       0.00000000       0.00000000       0.00000000       0.00000000       0.00000000       0.00000000
H        4.20923268       0.81006721      20.00000000        3       1.00000000       0.00000000       0.00000000       0.00000000       0.00000000       0.00000000       0.00000000
H        0.00000000       3.24026883      20.00000000        3       1.00000000       0.00000000       0.00000000       0.00000000       0.00000000       0.00000000       0.00000000
H        2.80615512       3.24026883      20.00000000        3       1.00000000       0.00000000       0.00000000       0.00000000       0.00000000       0.00000000       0.00000000
H        0.00000000       1.62013441      22.29121606        2       1.00000000       0.00000000       0.00000000       0.00000000       0.00000000       0.00000000       0.00000000
H        2.80615512       1.62013441      22.29121606        2       1.00000000       0.00000000       0.00000000       0.00000000       0.00000000       0.00000000       0.00000000
H        1.40307756       4.05033604      22.29121606        2       1.00000000       0.00000000       0.00000000       0.00000000       0.00000000       0.00000000       0.00000000
H        4.20923268       4.05033604      22.29121606        2       1.00000000       0.00000000       0.00000000       0.00000000       0.00000000       0.00000000       0.00000000
H        0.00000000       0.00000000      24.58243212        1       1.00000000       0.00000000       0.00000000       0.00000000       0.00000000       0.00000000       0.00000000
H        2.80615512       0.00000000      24.58243212        1       1.00000000       0.00000000       0.00000000       0.00000000       0.00000000       0.00000000       0.00000000
H        1.40307756       2.43020162      24.58243212        1       1.00000000       0.00000000       0.00000000       0.00000000       0.00000000       0.00000000       0.00000000
H        4.20923268       2.43020162      24.58243212        1       1.00000000       0.00000000       0.00000000       0.00000000       0.00000000       0.00000000       0.00000000
H        0.00379145       1.63315402      26.78912772        0       1.00000000      -0.00000032       0.00000037      -0.00000022      -0.00000108      -0.00000257       0.00000094
H        0.00625666       0.01927129      29.01656458        0       1.00000000      -0.00000031      -0.00000045       0.00000011      -0.00000021       0.00000131      -0.00000031
H        1.41338885       4.03573124      26.81344933        0       1.00000000       0.00000003      -0.00000064      -0.00000007      -0.00000039       0.00000017      -0.00000026
H        4.20544083       4.06335460      26.78912700        0       1.00000000      -0.00000116       0.00000047      -0.00000063       0.00000084       0.00000089      -0.00000285
H        4.20297474       2.44947253      29.01656503        0       1.00000000      -0.00000064      -0.00000070       0.00000102       0.00000030      -0.00000095       0.00000115
H        2.79584400       1.60552956      26.81344933        0       1.00000000       0.00000072      -0.00000076       0.00000079       0.00000218       0.00000117       0.00000125
18
Lattice="5.612310241546866 0.0 0.0 0.0 4.860403243099165 0.0 0.0 0.0 44.58243212332868" Properties=species:S:1:pos:R:3:tags:I:1:masses:R:1:momenta:R:3:forces:R:3 KEmax=23.26679191048647 iter=119999 volume=1216.1236359717223 ns_energy=-11.647137732079257 last_walked_iter_clone=118902 energy=-11.647137732082168 stress="0.004540984848994513 7.223723182137274e-10 -3.2202252202135044e-09 7.223723182137274e-10 0.00453713949918355 1.4962196324709255e-08 -3.2202252202135044e-09 1.4962196324709255e-08 0.0023242396363959642" pbc="T T T"
H        1.40307756       0.81006721      20.00000000        3       1.00000000       0.00000000       0.00000000       0.00000000       0.00000000       0.00000000       0.00000000
H        4.20923268       0.81006721      20.00000000        3       1.00000000       0.00000000       0.00000000       0.00000000       0.00000000       0.00000000       0.00000000
H        0.00000000       3.24026883      20.00000000        3       1.00000000       0.00000000       0.00000000       0.00000000       0.00000000       0.00000000       0.00000000
H        2.80615512       3.24026883      20.00000000        3       1.00000000       0.00000000       0.00000000       0.00000000       0.00000000       0.00000000       0.00000000
H        0.00000000       1.62013441      22.29121606        2       1.00000000       0.00000000       0.00000000       0.00000000       0.00000000       0.00000000       0.00000000
H        2.80615512       1.62013441      22.29121606        2       1.00000000       0.00000000       0.00000000       0.00000000       0.00000000       0.00000000       0.00000000
H        1.40307756       4.05033604      22.29121606        2       1.00000000       0.00000000       0.00000000       0.00000000       0.00000000       0.00000000       0.00000000
H        4.20923268       4.05033604      22.29121606        2       1.00000000       0.00000000       0.00000000       0.00000000       0.00000000       0.00000000       0.00000000
H        0.00000000       0.00000000      24.58243212        1       1.00000000       0.00000000       0.00000000       0.00000000       0.00000000       0.00000000       0.00000000
H        2.80615512       0.00000000      24.58243212        1       1.00000000       0.00000000       0.00000000       0.00000000       0.00000000       0.00000000       0.00000000
H        1.40307756       2.43020162      24.58243212        1       1.00000000       0.00000000       0.00000000       0.00000000       0.00000000       0.00000000       0.00000000
H        4.20923268       2.43020162      24.58243212        1       1.00000000       0.00000000       0.00000000       0.00000000       0.00000000       0.00000000       0.00000000
H        0.00379233       1.63315302      26.78912740        0       1.00000000       0.00000101       0.00000028       0.00000075      -0.00000108      -0.00000257       0.00000094
H        0.00625712       0.01927150      29.01656500        0       1.00000000       0.00000011       0.00000089      -0.00000038      -0.00000021       0.00000131      -0.00000031
H        1.41338783       4.03573134      26.81344917        0       1.00000000      -0.00000000      -0.00000092      -0.00000024      -0.00000039       0.00000017      -0.00000026
H        4.20543958       4.06335471      26.78912711        0       1.00000000      -0.00000021      -0.00000148       0.00000035       0.00000084       0.00000089      -0.00000285
H        4.20297438       2.44947244      29.01656447        0       1.00000000      -0.00000018       0.00000069       0.00000046       0.00000030      -0.00000095       0.00000115
H        2.79584383       1.60553003      26.81344920        0       1.00000000       0.00000056      -0.00000019      -0.00000142       0.00000218       0.00000117       0.00000125
18
Lattice="5.612310241546866 0.0 0.0 0.0 4.860403243099165 0.0 0.0 0.0 44.58243212332868" Properties=species:S:1:pos:R:3:tags:I:1:masses:R:1:momenta:R:3:forces:R:3 KEmax=23.26679191048647 iter=119999 volume=1216.1236359717223 ns_energy=-11.647137732079162 last_walked_iter_clone=119720 energy=-11.647137732082168 stress="0.004540984848994513 7.223723182137274e-10 -3.2202252202135044e-09 7.223723182137274e-10 0.00453713949918355 1.4962196324709255e-08 -3.2202252202135044e-09 1.4962196324709255e-08 0.0023242396363959642" pbc="T T T"
H        1.40307756       0.81006721      20.00000000        3       1.00000000       0.00000000       0.00000000       0.00000000       0.00000000       0.00000000       0.00000000
H        4.20923268       0.81006721      20.00000000        3       1.00000000       0.00000000       0.00000000       0.00000000       0.00000000       0.00000000       0.00000000
H        0.00000000       3.24026883      20.00000000        3       1.00000000       0.00000000       0.00000000       0.00000000       0.00000000       0.00000000       0.00000000
H        2.80615512       3.24026883      20.00000000        3       1.00000000       0.00000000       0.00000000       0.00000000       0.00000000       0.00000000       0.00000000
H        0.00000000       1.62013441      22.29121606        2       1.00000000       0.00000000       0.00000000       0.00000000       0.00000000       0.00000000       0.00000000
H        2.80615512       1.62013441      22.29121606        2       1.00000000       0.00000000       0.00000000       0.00000000       0.00000000       0.00000000       0.00000000
H        1.40307756       4.05033604      22.29121606        2       1.00000000       0.00000000       0.00000000       0.00000000       0.00000000       0.00000000       0.00000000
H        4.20923268       4.05033604      22.29121606        2       1.00000000       0.00000000       0.00000000       0.00000000       0.00000000       0.00000000       0.00000000
H        0.00000000       0.00000000      24.58243212        1       1.00000000       0.00000000       0.00000000       0.00000000       0.00000000       0.00000000       0.00000000
H        2.80615512       0.00000000      24.58243212        1       1.00000000       0.00000000       0.00000000       0.00000000       0.00000000       0.00000000       0.00000000
H        1.40307756       2.43020162      24.58243212        1       1.00000000       0.00000000       0.00000000       0.00000000       0.00000000       0.00000000       0.00000000
H        4.20923268       2.43020162      24.58243212        1       1.00000000       0.00000000       0.00000000       0.00000000       0.00000000       0.00000000       0.00000000
H        0.00379297       1.63315331      26.78912720        0       1.00000000       0.00000024       0.00000163      -0.00000043      -0.00000108      -0.00000257       0.00000094
H        0.00625792       0.01927175      29.01656526        0       1.00000000      -0.00000108       0.00000033       0.00000145      -0.00000021       0.00000131      -0.00000031
H        1.41338878       4.03573147      26.81344961        0       1.00000000       0.00000025       0.00000081      -0.00000071      -0.00000039       0.00000017      -0.00000026
H        4.20544147       4.06335497      26.78912703        0       1.00000000      -0.00000007       0.00000094      -0.00000002       0.00000084       0.00000089      -0.00000285
H        4.20297539       2.44947278      29.01656479        0       1.00000000       0.00000033       0.00000029       0.00000017       0.00000030      -0.00000095       0.00000115
H        2.79584492       1.60553000      26.81344955        0       1.00000000       0.00000090      -0.00000081       0.00000033       0.00000218       0.00000117       0.00000125
18
Lattice="5.612310241546866 0.0 0.0 0.0 4.860403243099165 0.0 0.0 0.0 44.58243212332868" Properties=species:S:1:pos:R:3:tags:I:1:masses:R:1:momenta:R:3:forces:R:3 KEmax=23.26679191048647 iter=119999 volume=1216.1236359717223 ns_energy=-11.647137732079148 last_walked_iter_clone=118139 energy=-11.647137732082168 stress="0.004540984848994513 7.223723182137274e-10 -3.2202252202135044e-09 7.223723182137274e-10 0.00453713949918355 1.4962196324709255e-08 -3.2202252202135044e-09 1.4962196324709255e-08 0.0023242396363959642" pbc="T T T"
H        1.40307756       0.81006721      20.00000000        3       1.00000000       0.00000000       0.00000000       0.00000000       0.00000000       0.00000000       0.00000000
H        4.20923268       0.81006721      20.00000000        3       1.00000000       0.00000000       0.00000000       0.00000000       0.00000000       0.00000000       0.00000000
H        0.00000000       3.24026883      20.00000000        3       1.00000000       0.00000000       0.00000000       0.00000000       0.00000000       0.00000000       0.00000000
H        2.80615512       3.24026883      20.00000000        3       1.00000000       0.00000000       0.00000000       0.00000000       0.00000000       0.00000000       0.00000000
H        0.00000000       1.62013441      22.29121606        2       1.00000000       0.00000000       0.00000000       0.00000000       0.00000000       0.00000000       0.00000000
H        2.80615512       1.62013441      22.29121606        2       1.00000000       0.00000000       0.00000000       0.00000000       0.00000000       0.00000000       0.00000000
H        1.40307756       4.05033604      22.29121606        2       1.00000000       0.00000000       0.00000000       0.00000000       0.00000000       0.00000000       0.00000000
H        4.20923268       4.05033604      22.29121606        2       1.00000000       0.00000000       0.00000000       0.00000000       0.00000000       0.00000000       0.00000000
H        0.00000000       0.00000000      24.58243212        1       1.00000000       0.00000000       0.00000000       0.00000000       0.00000000       0.00000000       0.00000000
H        2.80615512       0.00000000      24.58243212        1       1.00000000       0.00000000       0.00000000       0.00000000       0.00000000       0.00000000       0.00000000
H        1.40307756       2.43020162      24.58243212        1       1.00000000       0.00000000       0.00000000       0.00000000       0.00000000       0.00000000       0.00000000
H        4.20923268       2.43020162      24.58243212        1       1.00000000       0.00000000       0.00000000       0.00000000       0.00000000       0.00000000       0.00000000
H        0.00379226       1.63315363      26.78912752        0       1.00000000      -0.00000173      -0.00000069       0.00000046      -0.00000108      -0.00000257       0.00000094
H        0.00625718       0.01927150      29.01656434        0       1.00000000       0.00000103       0.00000081       0.00000007      -0.00000021       0.00000131      -0.00000031
H        1.41338838       4.03573224      26.81344894        0       1.00000000       0.00000108      -0.00000032       0.00000004      -0.00000039       0.00000017      -0.00000026
H        4.20544015       4.06335507      26.78912712        0       1.00000000       0.00000090       0.00000091      -0.00000045       0.00000084       0.00000089      -0.00000285
H        4.20297559       2.44947333      29.01656494        0       1.00000000      -0.00000103       0.00000006      -0.00000029       0.00000030      -0.00000095       0.00000115
H        2.79584445       1.60553045      26.81344935        0       1.00000000      -0.00000093       0.00000041       0.00000030       0.00000218       0.00000117       0.00000125
18
Lattice="5.612310241546866 0.0 0.0 0.0 4.860403243099165 0.0 0.0 0.0 44.58243212332868" Properties=species:S:1:pos:R:3:tags:I:1:masses:R:1:momenta:R:3:forces:R:3 KEmax=23.26679191048647 iter=119999 volume=1216.1236359717223 ns_energy=-11.6471377320792 last_walked_iter_clone=119724 energy=-11.647137732082168 stress="0.004540984848994513 7.223723182137274e-10 -3.2202252202135044e-09 7.223723182137274e-10 0.00453713949918355 1.4962196324709255e-08 -3.2202252202135044e-09 1.4962196324709255e-08 0.0023242396363959642" pbc="T T T"
H        1.40307756       0.81006721      20.00000000        3       1.00000000       0.00000000       0.00000000       0.00000000       0.00000000       0.00000000       0.00000000
H        4.20923268       0.81006721      20.00000000        3       1.00000000       0.00000000       0.00000000       0.00000000       0.00000000       0.00000000       0.00000000
H        0.00000000       3.24026883      20.00000000        3       1.00000000       0.00000000       0.00000000       0.00000000       0.00000000       0.00000000       0.00000000
H        2.80615512       3.24026883      20.00000000        3       1.00000000       0.00000000       0.00000000       0.00000000       0.00000000       0.00000000       0.00000000
H        0.00000000       1.62013441      22.29121606        2       1.00000000       0.00000000       0.00000000       0.00000000       0.00000000       0.00000000       0.00000000
H        2.80615512       1.62013441      22.29121606        2       1.00000000       0.00000000       0.00000000       0.00000000       0.00000000       0.00000000       0.00000000
H        1.40307756       4.05033604      22.29121606        2       1.00000000       0.00000000       0.00000000       0.00000000       0.00000000       0.00000000       0.00000000
H        4.20923268       4.05033604      22.29121606        2       1.00000000       0.00000000       0.00000000       0.00000000       0.00000000       0.00000000       0.00000000
H        0.00000000       0.00000000      24.58243212        1       1.00000000       0.00000000       0.00000000       0.00000000       0.00000000       0.00000000       0.00000000
H        2.80615512       0.00000000      24.58243212        1       1.00000000       0.00000000       0.00000000       0.00000000       0.00000000       0.00000000       0.00000000
H        1.40307756       2.43020162      24.58243212        1       1.00000000       0.00000000       0.00000000       0.00000000       0.00000000       0.00000000       0.00000000
H        4.20923268       2.43020162      24.58243212        1       1.00000000       0.00000000       0.00000000       0.00000000       0.00000000       0.00000000       0.00000000
H        0.00379173       1.63315204      26.78912733        0       1.00000000       0.00000007       0.00000010       0.00000091      -0.00000108      -0.00000257       0.00000094
H        0.00625727       0.01927072      29.01656553        0       1.00000000       0.00000034      -0.00000099      -0.00000084      -0.00000021       0.00000131      -0.00000031
H        1.41338812       4.03573100      26.81344963        0       1.00000000       0.00000007      -0.00000072      -0.00000025      -0.00000039       0.00000017      -0.00000026