19
Lattice="5.612310241546866 0.0 0.0 0.0 4.860403243099165 0.0 0.0 0.0 44.58243212332868" Properties=species:S:1:pos:R:3:tags:I:1:masses:R:1:momenta:R:3:forces:R:3 KEmax=24.559391461069055 iter=40566 volume=1216.1236359717223 set_wall=T ns_energy=-12.508237812528247 last_walked_iter_clone=40404 energy=-12.519046209824753 stress="0.023611891047789196 -0.0006812462622007784 -9.188711190134116e-05 -0.0006812462622007784 0.02301516101050046 -0.0002700959124250569 -9.188711190134116e-05 -0.0002700959124250569 0.010714494555245398" pbc="T T F"
H        1.40307756       0.81006721      20.00000000        3       1.00000000       0.00000000       0.00000000       0.00000000       0.00000000       0.00000000       0.00000000
H        4.20923268       0.81006721      20.00000000        3       1.00000000       0.00000000       0.00000000       0.00000000       0.00000000       0.00000000       0.00000000
H        0.00000000       3.24026883      20.00000000        3       1.00000000       0.00000000       0.00000000       0.00000000       0.00000000       0.00000000       0.00000000
H        2.80615512       3.24026883      20.00000000        3       1.00000000       0.00000000       0.00000000       0.00000000       0.00000000       0.00000000       0.00000000
H        0.00000000       1.62013441      22.29121606        2       1.00000000       0.00000000       0.00000000       0.00000000       0.00000000       0.00000000       0.00000000
H        2.80615512       1.62013441      22.29121606        2       1.00000000       0.00000000       0.00000000       0.00000000       0.00000000       0.00000000       0.00000000
H        1.40307756       4.05033604      22.29121606        2       1.00000000       0.00000000       0.00000000       0.00000000       0.00000000       0.00000000       0.00000000
H        4.20923268       4.05033604      22.29121606        2       1.00000000       0.00000000       0.00000000       0.00000000       0.00000000       0.00000000       0.00000000
H        0.00000000       0.00000000      24.58243212        1       1.00000000       0.00000000       0.00000000       0.00000000       0.00000000       0.00000000       0.00000000
H        2.80615512       0.00000000      24.58243212        1       1.00000000       0.00000000       0.00000000       0.00000000       0.00000000       0.00000000       0.00000000
H        1.40307756       2.43020162      24.58243212        1       1.00000000       0.00000000       0.00000000       0.00000000       0.00000000       0.00000000       0.00000000
H        4.20923268       2.43020162      24.58243212        1       1.00000000       0.00000000       0.00000000       0.00000000       0.00000000       0.00000000       0.00000000
H       -0.02835304       1.66554356      26.82016130        0       1.00000000      -0.00309920       0.04929136       0.02369790      -0.07480976      -0.09747242       0.00069251
H        2.79090604       1.65530915      26.77216694        0       1.00000000      -0.02589168      -0.02167699       0.00740466       0.03085885       0.11848798      -0.13350312
H        5.58244892       4.86112801      29.03167358        0       1.00000000      -0.02369636       0.01171842      -0.03165774       0.00233170       0.12128319      -0.00428365
H        1.40735526       4.10829862      26.77368578        0       1.00000000      -0.03358156      -0.03537508       0.07080385       0.03131028       0.03753537       0.06631909
H        2.80032900       4.88961390      29.04113030        0       1.00000000       0.05409991       0.04713364       0.06912142      -0.00669282      -0.01261258       0.14871826
H        4.20168425       4.08712135      26.77951729        0       1.00000000       0.04346580       0.01754895       0.02269110      -0.02868916       0.02606530      -0.11431489
H        4.18820746       2.44301614      29.02581215        0       1.00000000      -0.00802829      -0.00697889       0.03568572       0.03125246      -0.13571517      -0.01037957
19
Lattice="5.612310241546866 0.0 0.0 0.0 4.860403243099165 0.0 0.0 0.0 44.58243212332868" Properties=species:S:1:pos:R:3:tags:I:1:masses:R:1:momenta:R:3:forces:R:3 KEmax=24.559391461069055 iter=40566 volume=1216.1236359717223 set_wall=T ns_energy=-12.508788775008949 last_walked_iter_clone=40498 energy=-12.519046209824753 stress="0.023611891047789196 -0.0006812462622007784 -9.188711190134116e-05 -0.0006812462622007784 0.02301516101050046 -0.0002700959124250569 -9.188711190134116e-05 -0.0002700959124250569 0.010714494555245398" pbc="T T F"
H        1.40307756       0.81006721      20.00000000        3       1.00000000       0.00000000       0.00000000       0.00000000       0.00000000       0.00000000       0.00000000
H        4.20923268       0.81006721      20.00000000        3       1.00000000       0.00000000       0.00000000       0.00000000       0.00000000       0.00000000       0.00000000
H        0.00000000       3.24026883      20.00000000        3       1.00000000       0.00000000       0.00000000       0.00000000       0.00000000       0.00000000       0.00000000
H        2.80615512       3.24026883      20.00000000        3       1.00000000       0.00000000       0.00000000       0.00000000       0.00000000       0.00000000       0.00000000
H        0.00000000       1.62013441      22.29121606        2       1.00000000       0.00000000       0.00000000       0.00000000       0.00000000       0.00000000       0.00000000
H        2.80615512       1.62013441      22.29121606        2       1.00000000       0.00000000       0.00000000       0.00000000       0.00000000       0.00000000       0.00000000
H        1.40307756       4.05033604      22.29121606        2       1.00000000       0.00000000       0.00000000       0.00000000       0.00000000       0.00000000       0.00000000
H        4.20923268       4.05033604      22.29121606        2       1.00000000       0.00000000       0.00000000       0.00000000       0.00000000       0.00000000       0.00000000
H        0.00000000       0.00000000      24.58243212        1       1.00000000       0.00000000       0.00000000       0.00000000       0.00000000       0.00000000       0.00000000
H        2.80615512       0.00000000      24.58243212        1       1.00000000       0.00000000       0.00000000       0.00000000       0.00000000       0.00000000       0.00000000
H        1.40307756       2.43020162      24.58243212        1       1.00000000       0.00000000       0.00000000       0.00000000       0.00000000       0.00000000       0.00000000
H        4.20923268       2.43020162      24.58243212        1       1.00000000       0.00000000       0.00000000       0.00000000       0.00000000       0.00000000       0.00000000
H        5.62229733       1.66008968      26.81758985        0       1.00000000      -0.02928138      -0.05005531       0.04693925      -0.07480976      -0.09747242       0.00069251
H        2.79871993       1.60162280      26.79040047        0       1.00000000      -0.00835503      -0.00271276       0.03770929       0.03085885       0.11848798      -0.13350312
H       -0.05480661       4.83731451      29.02247609        0       1.00000000      -0.03160507       0.04069808      -0.06199700       0.00233170       0.12128319      -0.00428365
H        1.33557870       4.05408948      26.80231615        0       1.00000000      -0.00415768      -0.00843502      -0.02506225       0.03131028       0.03753537       0.06631909
H        2.76686749       4.79414281      29.00022433        0       1.00000000       0.02853336       0.00728121      -0.00923746      -0.00669282      -0.01261258       0.14871826
H        4.16350807       4.03445683      26.76133269        0       1.00000000       0.03851400       0.00855604       0.04512072      -0.02868916       0.02606530      -0.11431489
H        4.20943956       2.40356173      29.00120071        0       1.00000000       0.01766413      -0.03036201       0.03767057       0.03125246      -0.13571517      -0.01037957
19
Lattice="5.612310241546866 0.0 0.0 0.0 4.860403243099165 0.0 0.0 0.0 44.58243212332868" Properties=species:S:1:pos:R:3:tags:I:1:masses:R:1:momenta:R:3:forces:R:3 KEmax=24.559391461069055 iter=40566 volume=1216.1236359717223 set_wall=T ns_energy=-12.508630704219089 last_walked_iter_clone=40429 energy=-12.519046209824753 stress="0.023611891047789196 -0.0006812462622007784 -9.188711190134116e-05 -0.0006812462622007784 0.02301516101050046 -0.0002700959124250569 -9.188711190134116e-05 -0.0002700959124250569 0.010714494555245398" pbc="T T F"
H        1.40307756       0.81006721      20.00000000        3       1.00000000       0.00000000       0.00000000       0.00000000       0.00000000       0.00000000       0.00000000
H        4.20923268       0.81006721      20.00000000        3       1.00000000       0.00000000       0.00000000       0.00000000       0.00000000       0.00000000       0.00000000
H        0.00000000       3.24026883      20.00000000        3       1.00000000       0.00000000       0.00000000       0.00000000       0.00000000       0.00000000       0.00000000
H        2.80615512       3.24026883      20.00000000        3       1.00000000       0.00000000       0.00000000       0.00000000       0.00000000       0.00000000       0.00000000
H        0.00000000       1.62013441      22.29121606        2       1.00000000       0.00000000       0.00000000       0.00000000       0.00000000       0.00000000       0.00000000
H        2.80615512       1.62013441      22.29121606        2       1.00000000       0.00000000       0.00000000       0.00000000       0.00000000       0.00000000       0.00000000
H        1.40307756       4.05033604      22.29121606        2       1.00000000       0.00000000       0.00000000       0.00000000       0.00000000       0.00000000       0.00000000
H        4.20923268       4.05033604      22.29121606        2       1.00000000       0.00000000       0.00000000       0.00000000       0.00000000       0.00000000       0.00000000
H        0.00000000       0.00000000      24.58243212        1       1.00000000       0.00000000       0.00000000       0.00000000       0.00000000       0.00000000       0.00000000
H        2.80615512       0.00000000      24.58243212        1       1.00000000       0.00000000       0.00000000       0.00000000       0.00000000       0.00000000       0.00000000
H        1.40307756       2.43020162      24.58243212        1       1.00000000       0.00000000       0.00000000       0.00000000       0.00000000       0.00000000       0.00000000
H        4.20923268       2.43020162      24.58243212        1       1.00000000       0.00000000       0.00000000       0.00000000       0.00000000       0.00000000       0.00000000
H        0.02484994       1.67097084      26.82167153        0       1.00000000      -0.03327282       0.00420429      -0.03709466      -0.07480976      -0.09747242       0.00069251
H        2.82083262       1.68539399      26.81487937        0       1.00000000      -0.02600678       0.05635600       0.06322722       0.03085885       0.11848798      -0.13350312
H        0.01688844       0.00718973      29.00433885        0       1.00000000      -0.00858281      -0.02332162       0.04509140       0.00233170       0.12128319      -0.00428365
H        1.44232541       4.07405913      26.77203236        0       1.00000000       0.03650464      -0.04888314      -0.00913574       0.03131028       0.03753537       0.06631909
H        2.85785795       0.00236371      29.02185655        0       1.00000000      -0.00855192      -0.02490148       0.02700716      -0.00669282      -0.01261258       0.14871826
H        4.27270506       4.07026388      26.76399874        0       1.00000000       0.03248028       0.00942921      -0.00643291      -0.02868916       0.02606530      -0.11431489
H        4.24529838       2.44292619      29.03183986        0       1.00000000      -0.05349744       0.04206340       0.00954006       0.03125246      -0.13571517      -0.01037957
19
Lattice="5.612310241546866 0.0 0.0 0.0 4.860403243099165 0.0 0.0 0.0 44.58243212332868" Properties=species:S:1:pos:R:3:tags:I:1:masses:R:1:momenta:R:3:forces:R:3 KEmax=24.559391461069055 iter=40566 volume=1216.1236359717223 set_wall=T ns_energy=-12.509647408760806 last_walked_iter_clone=40465 energy=-12.519046209824753 stress="0.023611891047789196 -0.0006812462622007784 -9.188711190134116e-05 -0.0006812462622007784 0.02301516101050046 -0.0002700959124250569 -9.188711190134116e-05 -0.0002700959124250569 0.010714494555245398" pbc="T T F"
H        1.40307756       0.81006721      20.00000000        3       1.00000000       0.00000000       0.00000000       0.00000000       0.00000000       0.00000000       0.00000000
H        4.20923268       0.81006721      20.00000000        3       1.00000000       0.00000000       0.00000000       0.00000000       0.00000000       0.00000000       0.00000000
H        0.00000000       3.24026883      20.00000000        3       1.00000000       0.00000000       0.00000000       0.00000000       0.00000000       0.00000000       0.00000000
H        2.80615512       3.24026883      20.00000000        3       1.00000000       0.00000000       0.00000000       0.00000000       0.00000000       0.00000000       0.00000000
H        0.00000000       1.62013441      22.29121606        2       1.00000000       0.00000000       0.00000000       0.00000000       0.00000000       0.00000000       0.00000000
H        2.80615512       1.62013441      22.29121606        2       1.00000000       0.00000000       0.00000000       0.00000000       0.00000000       0.00000000       0.00000000
H        1.40307756       4.05033604      22.29121606        2       1.00000000       0.00000000       0.00000000       0.00000000       0.00000000       0.00000000       0.00000000
H        4.20923268       4.05033604      22.29121606        2       1.00000000       0.00000000       0.00000000       0.00000000       0.00000000       0.00000000       0.00000000
H        0.00000000       0.00000000      24.58243212        1       1.00000000       0.00000000       0.00000000       0.00000000       0.00000000       0.00000000       0.00000000
H        2.80615512       0.00000000      24.58243212        1       1.00000000       0.00000000       0.00000000       0.00000000       0.00000000       0.00000000       0.00000000
H        1.40307756       2.43020162      24.58243212        1       1.00000000       0.00000000       0.00000000       0.00000000       0.00000000       0.00000000       0.00000000
H        4.20923268       2.43020162      24.58243212        1       1.00000000       0.00000000       0.00000000       0.00000000       0.00000000       0.00000000       0.00000000
H       -0.00968469       1.55997886      26.78165490        0       1.00000000       0.04853087       0.02187983       0.03983122      -0.07480976      -0.09747242       0.00069251
H        2.76206803       1.60007008      26.81282976        0       1.00000000      -0.03573375       0.03495469      -0.02344008       0.03085885       0.11848798      -0.13350312
H        0.03384672       4.79449624      29.05298177        0       1.00000000      -0.01229281      -0.00578445       0.02054756       0.00233170       0.12128319      -0.00428365
H        1.42928495       3.98781319      26.80291333        0       1.00000000       0.08713678       0.03548197       0.00186189       0.03131028       0.03753537       0.06631909
H        2.82058674       4.82917678      28.97078010        0       1.00000000      -0.00385353       0.01518428      -0.02546727      -0.00669282      -0.01261258       0.14871826
H        4.22807123       4.02139752      26.77458493        0       1.00000000      -0.01835509      -0.01370725      -0.02046067      -0.02868916       0.02606530      -0.11431489
H        4.22882092       2.37233436      29.00065924        0       1.00000000       0.02712007       0.05718414      -0.00205197       0.03125246      -0.13571517      -0.01037957
19
Lattice="5.612310241546866 0.0 0.0 0.0 4.860403243099165 0.0 0.0 0.0 44.58243212332868" Properties=species:S:1:pos:R:3:tags:I:1:masses:R:1:momenta:R:3:forces:R:3 KEmax=24.559391461069055 iter=40566 volume=1216.1236359717223 set_wall=T ns_energy=-12.508627421790427 last_walked_iter_clone=40229 energy=-12.519046209824753 stress="0.023611891047789196 -0.0006812462622007784 -9.188711190134116e-05 -0.0006812462622007784 0.02301516101050046 -0.0002700959124250569 -9.188711190134116e-05 -0.0002700959124250569 0.010714494555245398" pbc="T T F"
H        1.40307756       0.81006721      20.00000000        3       1.00000000       0.00000000       0.00000000       0.00000000       0.00000000       0.00000000       0.00000000
H        4.20923268       0.81006721      20.00000000        3       1.00000000       0.00000000       0.00000000       0.00000000       0.00000000       0.00000000       0.00000000
H        0.00000000       3.24026883      20.00000000        3       1.00000000       0.00000000       0.00000000       0.00000000       0.00000000       0.00000000       0.00000000
H        2.80615512       3.24026883      20.00000000        3       1.00000000       0.00000000       0.00000000       0.00000000       0.00000000       0.00000000       0.00000000
H        0.00000000       1.62013441      22.29121606        2       1.00000000       0.00000000       0.00000000       0.00000000       0.00000000       0.00000000       0.00000000
H        2.80615512       1.62013441      22.29121606        2       1.00000000       0.00000000       0.00000000       0.00000000       0.00000000       0.00000000       0.00000000
H        1.40307756       4.05033604      22.29121606        2       1.00000000       0.00000000       0.00000000       0.00000000       0.00000000       0.00000000       0.00000000
H        4.20923268       4.05033604      22.29121606        2       1.00000000       0.00000000       0.00000000       0.00000000       0.00000000       0.00000000       0.00000000
H        0.00000000       0.00000000      24.58243212        1       1.00000000       0.00000000       0.00000000       0.00000000       0.00000000       0.00000000       0.00000000
H        2.80615512       0.00000000      24.58243212        1       1.00000000       0.00000000       0.00000000       0.00000000       0.00000000       0.00000000       0.00000000
H        1.40307756       2.43020162      24.58243212        1       1.00000000       0.00000000       0.00000000       0.00000000       0.00000000       0.00000000       0.00000000
H        4.20923268       2.43020162      24.58243212        1       1.00000000       0.00000000       0.00000000       0.00000000       0.00000000       0.00000000       0.00000000
H        5.64233435       1.60145841      26.79858445        0       1.00000000       0.03788644      -0.01061026       0.02416274      -0.07480976      -0.09747242       0.00069251
H        2.81256375       1.61596036      26.77201537        0       1.00000000       0.01522834      -0.01509596       0.01226241       0.03085885       0.11848798      -0.13350312
H        0.01939493       4.81038318      28.98620032        0       1.00000000      -0.00634915       0.04297898       0.01442211       0.00233170       0.12128319      -0.00428365
H        1.40198105       4.02310750      26.75681790        0       1.00000000       0.07600232      -0.02436004       0.01165503       0.03131028       0.03753537       0.06631909
H        2.79634397       4.80060008      28.96776637        0       1.00000000      -0.05342101       0.03452147      -0.00258128      -0.00669282      -0.01261258       0.14871826
H        4.25276186       4.01729153      26.76031636        0       1.00000000       0.00502594       0.11338256       0.02724907      -0.02868916       0.02606530      -0.11431489
H        4.21448080       2.36276558      29.00017993        0       1.00000000       0.02575303      -0.00076940      -0.02365859       0.03125246      -0.13571517      -0.01037957
19
Lattice="5.612310241546866 0.0 0.0 0.0 4.860403243099165 0.0 0.0 0.0 44.58243212332868" Properties=species:S:1:pos:R:3:tags:I:1:masses:R:1:momenta:R:3:forces:R:3 KEmax=24.559391461069055 iter=40566 volume=1216.1236359717223 set_wall=T ns_energy=-12.50863890625034 last_walked_iter_clone=40415 energy=-12.519046209824753 stress="0.023611891047789196 -0.0006812462622007784 -9.188711190134116e-05 -0.0006812462622007784 0.02301516101050046 -0.0002700959124250569 -9.188711190134116e-05 -0.0002700959124250569 0.010714494555245398" pbc="T T F"
H        1.40307756       0.81006721      20.00000000        3       1.00000000       0.00000000       0.00000000       0.00000000       0.00000000       0.00000000       0.00000000
H        4.20923268       0.81006721      20.00000000        3       1.00000000       0.00000000       0.00000000       0.00000000       0.00000000       0.00000000       0.00000000
H        0.00000000       3.24026883      20.00000000        3       1.00000000       0.00000000       0.00000000       0.00000000       0.00000000       0.00000000       0.00000000
H        2.80615512       3.24026883      20.00000000        3       1.00000000       0.00000000       0.00000000       0.00000000       0.00000000       0.00000000       0.00000000
H        0.00000000       1.62013441      22.29121606        2       1.00000000       0.00000000       0.00000000       0.00000000       0.00000000       0.00000000       0.00000000
H        2.80615512       1.62013441      22.29121606        2       1.00000000       0.00000000       0.00000000       0.00000000       0.00000000       0.00000000       0.00000000
H        1.40307756       4.05033604      22.29121606        2       1.00000000       0.00000000       0.00000000       0.00000000       0.00000000       0.00000000       0.00000000
H        4.20923268       4.05033604      22.29121606        2       1.00000000       0.00000000       0.00000000       0.00000000       0.00000000       0.00000000       0.00000000
H        0.00000000       0.00000000      24.58243212        1       1.00000000       0.00000000       0.00000000       0.00000000       0.00000000       0.00000000       0.00000000
H        2.80615512       0.00000000      24.58243212        1       1.00000000       0.00000000       0.00000000       0.00000000       0.00000000       0.00000000       0.00000000
H        1.40307756       2.43020162      24.58243212        1       1.00000000       0.00000000       0.00000000       0.00000000       0.00000000       0.00000000       0.00000000
H        4.20923268       2.43020162      24.58243212        1       1.00000000       0.00000000       0.00000000       0.00000000       0.00000000       0.00000000       0.00000000
H        5.59522523       1.64630121      26.81037108        0       1.00000000      -0.00998870       0.04760234      -0.01605267      -0.07480976      -0.09747242       0.00069251
H        2.80404195       1.65812378      26.77999220        0       1.00000000       0.06063187      -0.00912471      -0.00936623       0.03085885       0.11848798      -0.13350312
H        1.38003940       0.86394924      29.03226175        0       1.00000000       0.01697357       0.00657572       0.03282994       0.00233170       0.12128319      -0.00428365
H        1.37743158       4.06068898      26.78598830        0       1.00000000       0.04926255       0.00445623      -0.05714861       0.03131028       0.03753537       0.06631909
H        4.18389748       0.81031361      29.02312220        0       1.00000000      -0.00033810      -0.05509495      -0.02172714      -0.00669282      -0.01261258       0.14871826
H        4.18085918       4.08365191      26.81005800        0       1.00000000      -0.02933626      -0.08912460       0.01864897      -0.02868916       0.02606530      -0.11431489
H        5.61166608       3.27112783      29.04502052        0       1.00000000      -0.01077691      -0.00153671       0.08129140       0.03125246      -0.13571517      -0.01037957
19
Lattice="5.612310241546866 0.0 0.0 0.0 4.860403243099165 0.0 0.0 0.0 44.58243212332868" Properties=species:S:1:pos:R:3:tags:I:1:masses:R:1:momenta:R:3:forces:R:3 KEmax=24.559391461069055 iter=40566 volume=1216.1236359717223 set_wall=T ns_energy=-12.508180554784031 last_walked_iter_clone=40448 energy=-12.519046209824753 stress="0.023611891047789196 -0.0006812462622007784 -9.188711190134116e-05 -0.0006812462622007784 0.02301516101050046 -0.0002700959124250569 -9.188711190134116e-05 -0.0002700959124250569 0.010714494555245398" pbc="T T F"
H        1.40307756       0.81006721      20.00000000        3       1.00000000       0.00000000       0.00000000       0.00000000       0.00000000       0.00000000       0.00000000
H        4.20923268       0.81006721      20.00000000        3       1.00000000       0.00000000       0.00000000       0.00000000       0.00000000       0.00000000       0.00000000
H        0.00000000       3.24026883      20.00000000        3       1.00000000       0.00000000       0.00000000       0.00000000       0.00000000       0.00000000       0.00000000
H        2.80615512       3.24026883      20.00000000        3       1.00000000       0.00000000       0.00000000       0.00000000       0.00000000       0.00000000       0.00000000
H        0.00000000       1.62013441      22.29121606        2       1.00000000       0.00000000       0.00000000       0.00000000       0.00000000       0.00000000       0.00000000
H        2.80615512       1.62013441      22.29121606        2       1.00000000       0.00000000       0.00000000       0.00000000       0.00000000       0.00000000       0.00000000
H        1.40307756       4.05033604      22.29121606        2       1.00000000       0.00000000       0.00000000       0.00000000       0.00000000       0.00000000       0.00000000
H        4.20923268       4.05033604      22.29121606        2       1.00000000       0.00000000       0.00000000       0.00000000       0.00000000       0.00000000       0.00000000
H        0.00000000       0.00000000      24.58243212        1       1.00000000       0.00000000       0.00000000       0.00000000       0.00000000       0.00000000       0.00000000
H        2.80615512       0.00000000      24.58243212        1       1.00000000       0.00000000       0.00000000       0.00000000       0.00000000       0.00000000       0.00000000
H        1.40307756       2.43020162      24.58243212        1       1.00000000       0.00000000       0.00000000       0.00000000       0.00000000       0.00000000       0.00000000
H        4.20923268       2.43020162      24.58243212        1       1.00000000       0.00000000       0.00000000       0.00000000       0.00000000       0.00000000       0.00000000
H       -0.02545005       1.60387978      26.81577276        0       1.00000000      -0.01217311       0.01920780      -0.02515188      -0.07480976      -0.09747242       0.00069251
H        2.78998582       1.59790961      26.81071240        0       1.00000000      -0.05224038       0.01938332      -0.06075063       0.03085885       0.11848798      -0.13350312
H        5.57618269       4.83644392      29.05318083        0       1.00000000      -0.05879245       0.00497729      -0.03473415       0.00233170       0.12128319      -0.00428365
H        1.38650643       4.02828651      26.85666736        0       1.00000000      -0.03746448      -0.01283829       0.00746083       0.03131028       0.03753537       0.06631909
H        2.75694211       4.83500782      29.08013622        0       1.00000000       0.02709015       0.05977982      -0.00515003      -0.00669282      -0.01261258       0.14871826
H        4.17970367       4.04692730      26.83501107        0       1.00000000      -0.00132048       0.08056261      -0.00771287      -0.02868916       0.02606530      -0.11431489
H        4.19659956       2.39582225      29.02172417        0       1.00000000       0.02863387      -0.03012096      -0.00774299       0.03125246      -0.13571517      -0.01037957
19
Lattice="5.612310241546866 0.0 0.0 0.0 4.860403243099165 0.0 0.0 0.0 44.58243212332868" Properties=species:S:1:pos:R:3:tags:I:1:masses:R:1:momenta:R:3:forces:R:3 KEmax=24.559391461069055 iter=40566 volume=1216.1236359717223 set_wall=T ns_energy=-12.50829586291252 last_walked_iter_clone=40375 energy=-12.519046209824753 stress="0.023611891047789196 -0.0006812462622007784 -9.188711190134116e-05 -0.0006812462622007784 0.02301516101050046 -0.0002700959124250569 -9.188711190134116e-05 -0.0002700959124250569 0.010714494555245398" pbc="T T F"
H        1.40307756       0.81006721      20.00000000        3       1.00000000       0.00000000       0.00000000       0.00000000       0.00000000       0.00000000       0.00000000
H        4.20923268       0.81006721      20.00000000        3       1.00000000       0.00000000       0.00000000       0.00000000       0.00000000       0.00000000       0.00000000
H        0.00000000       3.24026883      20.00000000        3       1.00000000       0.00000000       0.00000000       0.00000000       0.00000000       0.00000000       0.00000000
H        2.80615512       3.24026883      20.00000000        3       1.00000000       0.00000000       0.00000000       0.00000000       0.00000000       0.00000000       0.00000000
H        0.00000000       1.62013441      22.29121606        2       1.00000000       0.00000000       0.00000000       0.00000000       0.00000000       0.00000000       0.00000000
H        2.80615512       1.62013441      22.29121606        2       1.00000000       0.00000000       0.00000000       0.00000000       0.00000000       0.00000000       0.00000000
H        1.40307756       4.05033604      22.29121606        2       1.00000000       0.00000000       0.00000000       0.00000000       0.00000000       0.00000000       0.00000000