19
Lattice="5.612310241546866 0.0 0.0 0.0 4.860403243099165 0.0 0.0 0.0 44.58243212332868" Properties=species:S:1:pos:R:3:tags:I:1:masses:R:1:momenta:R:3 KEmax=24.559391461069055 iter=99 volume=1216.1236359717223 set_wall=T ns_energy=686.6285788880175 last_walked_iter_clone=70 ns_P=0.0 config_n_global=99 ns_KE=21.60143692021663 pbc="T T F"
H        1.40307756       0.81006721      20.00000000        3       1.00000000       0.00000000       0.00000000       0.00000000
H        4.20923268       0.81006721      20.00000000        3       1.00000000       0.00000000       0.00000000       0.00000000
H        0.00000000       3.24026883      20.00000000        3       1.00000000       0.00000000       0.00000000       0.00000000
H        2.80615512       3.24026883      20.00000000        3       1.00000000       0.00000000       0.00000000       0.00000000
H        0.00000000       1.62013441      22.29121606        2       1.00000000       0.00000000       0.00000000       0.00000000
H        2.80615512       1.62013441      22.29121606        2       1.00000000       0.00000000       0.00000000       0.00000000
H        1.40307756       4.05033604      22.29121606        2       1.00000000       0.00000000       0.00000000       0.00000000
H        4.20923268       4.05033604      22.29121606        2       1.00000000       0.00000000       0.00000000       0.00000000
H        0.00000000       0.00000000      24.58243212        1       1.00000000       0.00000000       0.00000000       0.00000000
H        2.80615512       0.00000000      24.58243212        1       1.00000000       0.00000000       0.00000000       0.00000000
H        1.40307756       2.43020162      24.58243212        1       1.00000000       0.00000000       0.00000000       0.00000000
H        4.20923268       2.43020162      24.58243212        1       1.00000000       0.00000000       0.00000000       0.00000000
H        2.40464210       4.59105448      28.49144139        0       1.00000000       1.51035896      -1.91552761       0.29275126
H        0.56388462       3.75422241      41.47383205        0       1.00000000       0.25683093       1.58713915       1.77847023
H        5.52729269       4.22239351      38.76499614        0       1.00000000      -1.94981333      -0.33955414      -0.54406836
H        0.31805950       4.39807858      30.54458309        0       1.00000000      -0.62223265       0.34892156       0.85637357
H        1.17579488       0.51356487      38.57745475        0       1.00000000      -1.68931170       0.87543576      -0.00209333
H        1.55798714       3.01361140      42.00564403        0       1.00000000      -2.20825595       2.61345895       0.63047950
H        3.43119521       2.55315906      29.17898990        0       1.00000000      -2.35527198       1.96843807       0.90396303
19
Lattice="5.612310241546866 0.0 0.0 0.0 4.860403243099165 0.0 0.0 0.0 44.58243212332868" Properties=species:S:1:pos:R:3:tags:I:1:masses:R:1:momenta:R:3 KEmax=24.559391461069055 iter=199 volume=1216.1236359717223 set_wall=T ns_energy=44.22785592457348 ns_P=0.0 config_n_global=199 ns_KE=10.153750938674001 pbc="T T F"
H        1.40307756       0.81006721      20.00000000        3       1.00000000       0.00000000       0.00000000       0.00000000
H        4.20923268       0.81006721      20.00000000        3       1.00000000       0.00000000       0.00000000       0.00000000
H        0.00000000       3.24026883      20.00000000        3       1.00000000       0.00000000       0.00000000       0.00000000
H        2.80615512       3.24026883      20.00000000        3       1.00000000       0.00000000       0.00000000       0.00000000
H        0.00000000       1.62013441      22.29121606        2       1.00000000       0.00000000       0.00000000       0.00000000
H        2.80615512       1.62013441      22.29121606        2       1.00000000       0.00000000       0.00000000       0.00000000
H        1.40307756       4.05033604      22.29121606        2       1.00000000       0.00000000       0.00000000       0.00000000
H        4.20923268       4.05033604      22.29121606        2       1.00000000       0.00000000       0.00000000       0.00000000
H        0.00000000       0.00000000      24.58243212        1       1.00000000       0.00000000       0.00000000       0.00000000
H        2.80615512       0.00000000      24.58243212        1       1.00000000       0.00000000       0.00000000       0.00000000
H        1.40307756       2.43020162      24.58243212        1       1.00000000       0.00000000       0.00000000       0.00000000
H        4.20923268       2.43020162      24.58243212        1       1.00000000       0.00000000       0.00000000       0.00000000
H        0.11930858       2.78604671      41.92779766        0       1.00000000      -1.25281999       0.26539710       0.07158893
H        5.18397391       4.36267501      35.39351699        0       1.00000000      -0.11065167      -0.04592153      -1.35100408
H        2.14723698       3.28805508      37.35962201        0       1.00000000       0.93886357      -1.16647621      -1.40923545
H        3.95979300       2.41312365      30.30641993        0       1.00000000      -0.32406070      -0.33294376      -0.46529759
H        3.53693914       2.75209610      31.91063448        0       1.00000000       0.79381563       1.04304465       2.18469296
H        5.40825832       1.33841921      28.95195145        0       1.00000000      -0.56492331      -1.58339522      -0.28762409
H        5.12360667       2.54366038      39.95563926        0       1.00000000      -1.63619952       0.02326616       0.29104748
19
Lattice="5.612310241546866 0.0 0.0 0.0 4.860403243099165 0.0 0.0 0.0 44.58243212332868" Properties=species:S:1:pos:R:3:tags:I:1:masses:R:1:momenta:R:3 KEmax=24.559391461069055 iter=299 volume=1216.1236359717223 set_wall=T ns_energy=16.20911250108572 last_walked_iter_clone=267 ns_P=0.0 config_n_global=299 ns_KE=19.278937648243826 pbc="T T F"
H        1.40307756       0.81006721      20.00000000        3       1.00000000       0.00000000       0.00000000       0.00000000
H        4.20923268       0.81006721      20.00000000        3       1.00000000       0.00000000       0.00000000       0.00000000
H        0.00000000       3.24026883      20.00000000        3       1.00000000       0.00000000       0.00000000       0.00000000
H        2.80615512       3.24026883      20.00000000        3       1.00000000       0.00000000       0.00000000       0.00000000
H        0.00000000       1.62013441      22.29121606        2       1.00000000       0.00000000       0.00000000       0.00000000
H        2.80615512       1.62013441      22.29121606        2       1.00000000       0.00000000       0.00000000       0.00000000
H        1.40307756       4.05033604      22.29121606        2       1.00000000       0.00000000       0.00000000       0.00000000
H        4.20923268       4.05033604      22.29121606        2       1.00000000       0.00000000       0.00000000       0.00000000
H        0.00000000       0.00000000      24.58243212        1       1.00000000       0.00000000       0.00000000       0.00000000
H        2.80615512       0.00000000      24.58243212        1       1.00000000       0.00000000       0.00000000       0.00000000
H        1.40307756       2.43020162      24.58243212        1       1.00000000       0.00000000       0.00000000       0.00000000
H        4.20923268       2.43020162      24.58243212        1       1.00000000       0.00000000       0.00000000       0.00000000
H        5.18886372       1.87582222      29.27001687        0       1.00000000      -0.18291063      -0.44109601       1.30118945
H        0.69898340       1.25966468      33.50967454        0       1.00000000       1.26998296       0.65630287      -0.05220950
H        4.69101643       2.65265343      38.04186698        0       1.00000000       1.41769372       0.43324800      -0.58399006
H        1.21873437       2.26590208      39.86136280        0       1.00000000       2.74298665      -3.05827198      -0.53011895
H        1.24393979       1.85782014      35.52087665        0       1.00000000       0.75720781       1.81460485       0.26642217
H        2.07958540       0.49356510      26.64468921        0       1.00000000      -0.08895991       2.06367144       0.09183131
H        0.53717802       0.30589723      30.14710958        0       1.00000000       2.31824410       0.28149301      -1.10819418
19
Lattice="5.612310241546866 0.0 0.0 0.0 4.860403243099165 0.0 0.0 0.0 44.58243212332868" Properties=species:S:1:pos:R:3:tags:I:1:masses:R:1:momenta:R:3 KEmax=24.559391461069055 iter=399 volume=1216.1236359717223 set_wall=T ns_energy=14.838825079188075 last_walked_iter_clone=169 ns_P=0.0 config_n_global=399 ns_KE=22.74126023628841 pbc="T T F"
H        1.40307756       0.81006721      20.00000000        3       1.00000000       0.00000000       0.00000000       0.00000000
H        4.20923268       0.81006721      20.00000000        3       1.00000000       0.00000000       0.00000000       0.00000000
H        0.00000000       3.24026883      20.00000000        3       1.00000000       0.00000000       0.00000000       0.00000000
H        2.80615512       3.24026883      20.00000000        3       1.00000000       0.00000000       0.00000000       0.00000000
H        0.00000000       1.62013441      22.29121606        2       1.00000000       0.00000000       0.00000000       0.00000000
H        2.80615512       1.62013441      22.29121606        2       1.00000000       0.00000000       0.00000000       0.00000000
H        1.40307756       4.05033604      22.29121606        2       1.00000000       0.00000000       0.00000000       0.00000000
H        4.20923268       4.05033604      22.29121606        2       1.00000000       0.00000000       0.00000000       0.00000000
H        0.00000000       0.00000000      24.58243212        1       1.00000000       0.00000000       0.00000000       0.00000000
H        2.80615512       0.00000000      24.58243212        1       1.00000000       0.00000000       0.00000000       0.00000000
H        1.40307756       2.43020162      24.58243212        1       1.00000000       0.00000000       0.00000000       0.00000000
H        4.20923268       2.43020162      24.58243212        1       1.00000000       0.00000000       0.00000000       0.00000000
H        4.73781871       4.60230887      36.00744108        0       1.00000000       0.16904965       1.11940058       0.13102919
H        3.83535925       1.12012778      30.23266365        0       1.00000000      -0.66365181       0.76576776       1.97448968
H        1.26332991       1.57011503      41.57881542        0       1.00000000      -1.91767477      -0.16210767       3.71483571
H        4.62474915       3.96968564      38.27715578        0       1.00000000      -0.92992477      -0.35143389      -0.77949329
H        0.83912164       0.37612369      39.50170518        0       1.00000000       0.07484414       0.69662697       1.66014210
H        3.57375071       2.74899103      27.58851944        0       1.00000000      -1.59400924      -3.11916208      -0.56476316
H        2.39404080       3.84028339      41.65754005        0       1.00000000       0.66726791       1.93274830       0.37671930
19
Lattice="5.612310241546866 0.0 0.0 0.0 4.860403243099165 0.0 0.0 0.0 44.58243212332868" Properties=species:S:1:pos:R:3:tags:I:1:masses:R:1:momenta:R:3 KEmax=24.559391461069055 iter=499 volume=1216.1236359717223 set_wall=T ns_energy=13.668568625346877 last_walked_iter_clone=373 ns_P=0.0 config_n_global=499 ns_KE=21.603153141595726 pbc="T T F"
H        1.40307756       0.81006721      20.00000000        3       1.00000000       0.00000000       0.00000000       0.00000000
H        4.20923268       0.81006721      20.00000000        3       1.00000000       0.00000000       0.00000000       0.00000000
H        0.00000000       3.24026883      20.00000000        3       1.00000000       0.00000000       0.00000000       0.00000000
H        2.80615512       3.24026883      20.00000000        3       1.00000000       0.00000000       0.00000000       0.00000000
H        0.00000000       1.62013441      22.29121606        2       1.00000000       0.00000000       0.00000000       0.00000000
H        2.80615512       1.62013441      22.29121606        2       1.00000000       0.00000000       0.00000000       0.00000000
H        1.40307756       4.05033604      22.29121606        2       1.00000000       0.00000000       0.00000000       0.00000000
H        4.20923268       4.05033604      22.29121606        2       1.00000000       0.00000000       0.00000000       0.00000000
H        0.00000000       0.00000000      24.58243212        1       1.00000000       0.00000000       0.00000000       0.00000000
H        2.80615512       0.00000000      24.58243212        1       1.00000000       0.00000000       0.00000000       0.00000000
H        1.40307756       2.43020162      24.58243212        1       1.00000000       0.00000000       0.00000000       0.00000000
H        4.20923268       2.43020162      24.58243212        1       1.00000000       0.00000000       0.00000000       0.00000000
H        4.36254816       1.71988753      33.58162401        0       1.00000000       2.03572413      -0.93121629      -1.89627683
H        4.82241327       0.56057867      29.86392072        0       1.00000000       1.12972082       1.33285454       1.98878875
H        4.28969566       0.11050020      41.55847341        0       1.00000000       1.20627802       0.59911068       0.12036145
H        5.40480571       1.61880628      27.59056160        0       1.00000000      -0.13790905      -0.25538543       1.02818861
H        2.97622449       4.62114884      38.69819572        0       1.00000000      -2.22120423      -1.25178562       1.22852779
H        0.47270260       1.42783786      37.21817408        0       1.00000000      -1.00667563       2.17545274      -1.82166972
H        4.29014671       3.19625371      30.31212073        0       1.00000000       0.39682854      -1.29631407      -2.38929765
19
Lattice="5.612310241546866 0.0 0.0 0.0 4.860403243099165 0.0 0.0 0.0 44.58243212332868" Properties=species:S:1:pos:R:3:tags:I:1:masses:R:1:momenta:R:3 KEmax=24.559391461069055 iter=599 volume=1216.1236359717223 set_wall=T ns_energy=12.56751178490211 last_walked_iter_clone=300 ns_P=0.0 config_n_global=599 ns_KE=19.997626800181944 pbc="T T F"
H        1.40307756       0.81006721      20.00000000        3       1.00000000       0.00000000       0.00000000       0.00000000
H        4.20923268       0.81006721      20.00000000        3       1.00000000       0.00000000       0.00000000       0.00000000
H        0.00000000       3.24026883      20.00000000        3       1.00000000       0.00000000       0.00000000       0.00000000
H        2.80615512       3.24026883      20.00000000        3       1.00000000       0.00000000       0.00000000       0.00000000
H        0.00000000       1.62013441      22.29121606        2       1.00000000       0.00000000       0.00000000       0.00000000
H        2.80615512       1.62013441      22.29121606        2       1.00000000       0.00000000       0.00000000       0.00000000
H        1.40307756       4.05033604      22.29121606        2       1.00000000       0.00000000       0.00000000       0.00000000
H        4.20923268       4.05033604      22.29121606        2       1.00000000       0.00000000       0.00000000       0.00000000
H        0.00000000       0.00000000      24.58243212        1       1.00000000       0.00000000       0.00000000       0.00000000
H        2.80615512       0.00000000      24.58243212        1       1.00000000       0.00000000       0.00000000       0.00000000
H        1.40307756       2.43020162      24.58243212        1       1.00000000       0.00000000       0.00000000       0.00000000
H        4.20923268       2.43020162      24.58243212        1       1.00000000       0.00000000       0.00000000       0.00000000
H        0.29244657       1.95649454      29.06824246        0       1.00000000       1.03081108      -1.05096575       0.22548118
H        5.57214490       1.72221658      31.81031199        0       1.00000000      -0.29842035       1.87628920      -2.24225779
H        5.01863210       2.88690978      38.61880343        0       1.00000000       1.78756581      -0.45176174       0.83793434
H        1.11629190       3.42299222      39.89138557        0       1.00000000       2.16306125       1.79167506      -0.52504015
H        1.87229027       2.62340612      35.47835203        0       1.00000000       0.02733766       2.34661351      -1.19312652
H        2.81454326       4.11275186      28.00997572        0       1.00000000       1.08969187      -1.29805534       2.16246710
H        0.65448620       4.22522881      30.51647914        0       1.00000000      -0.52531873      -0.47548679      -1.37560173
19
Lattice="5.612310241546866 0.0 0.0 0.0 4.860403243099165 0.0 0.0 0.0 44.58243212332868" Properties=species:S:1:pos:R:3:tags:I:1:masses:R:1:momenta:R:3 KEmax=24.559391461069055 iter=699 volume=1216.1236359717223 set_wall=T ns_energy=11.722154580969931 last_walked_iter_clone=522 ns_P=0.0 config_n_global=699 ns_KE=20.109954584795688 pbc="T T F"
H        1.40307756       0.81006721      20.00000000        3       1.00000000       0.00000000       0.00000000       0.00000000
H        4.20923268       0.81006721      20.00000000        3       1.00000000       0.00000000       0.00000000       0.00000000
H        0.00000000       3.24026883      20.00000000        3       1.00000000       0.00000000       0.00000000       0.00000000
H        2.80615512       3.24026883      20.00000000        3       1.00000000       0.00000000       0.00000000       0.00000000
H        0.00000000       1.62013441      22.29121606        2       1.00000000       0.00000000       0.00000000       0.00000000
H        2.80615512       1.62013441      22.29121606        2       1.00000000       0.00000000       0.00000000       0.00000000
H        1.40307756       4.05033604      22.29121606        2       1.00000000       0.00000000       0.00000000       0.00000000
H        4.20923268       4.05033604      22.29121606        2       1.00000000       0.00000000       0.00000000       0.00000000
H        0.00000000       0.00000000      24.58243212        1       1.00000000       0.00000000       0.00000000       0.00000000
H        2.80615512       0.00000000      24.58243212        1       1.00000000       0.00000000       0.00000000       0.00000000
H        1.40307756       2.43020162      24.58243212        1       1.00000000       0.00000000       0.00000000       0.00000000
H        4.20923268       2.43020162      24.58243212        1       1.00000000       0.00000000       0.00000000       0.00000000
H       -0.02379884       3.65964435      38.64486792        0       1.00000000      -1.05569219       1.06578079       1.99045874
H        0.14732341       1.74704770      41.16210938        0       1.00000000      -1.07173077      -1.06101569       0.47791535
H        4.32193624       4.78604889      43.11037996        0       1.00000000      -1.21175127       1.55377242       0.97133228
H        4.69487535       1.50234957      30.20441070        0       1.00000000      -0.63992354      -1.86042114       0.55820695
H        1.51201993       0.27785232      44.15780401        0       1.00000000      -2.73936757       0.30300856      -0.59106991
H        4.52124381       3.35685934      35.68834746        0       1.00000000       1.47507942      -2.28406549      -0.73280501
H        4.17826370       3.49201256      26.84903794        0       1.00000000       1.92909906       0.28277326       1.67929450
19
Lattice="5.612310241546866 0.0 0.0 0.0 4.860403243099165 0.0 0.0 0.0 44.58243212332868" Properties=species:S:1:pos:R:3:tags:I:1:masses:R:1:momenta:R:3 KEmax=24.559391461069055 iter=799 volume=1216.1236359717223 set_wall=T ns_energy=10.798852514078602 last_walked_iter_clone=711 ns_P=0.0 config_n_global=799 ns_KE=16.966251196492795 pbc="T T F"
H        1.40307756       0.81006721      20.00000000        3       1.00000000       0.00000000       0.00000000       0.00000000
H        4.20923268       0.81006721      20.00000000        3       1.00000000       0.00000000       0.00000000       0.00000000
H        0.00000000       3.24026883      20.00000000        3       1.00000000       0.00000000       0.00000000       0.00000000
H        2.80615512       3.24026883      20.00000000        3       1.00000000       0.00000000       0.00000000       0.00000000
H        0.00000000       1.62013441      22.29121606        2       1.00000000       0.00000000       0.00000000       0.00000000
H        2.80615512       1.62013441      22.29121606        2       1.00000000       0.00000000       0.00000000       0.00000000
H        1.40307756       4.05033604      22.29121606        2       1.00000000       0.00000000       0.00000000       0.00000000
H        4.20923268       4.05033604      22.29121606        2       1.00000000       0.00000000       0.00000000       0.00000000
H        0.00000000       0.00000000      24.58243212        1       1.00000000       0.00000000       0.00000000       0.00000000
H        2.80615512       0.00000000      24.58243212        1       1.00000000       0.00000000       0.00000000       0.00000000
H        1.40307756       2.43020162      24.58243212        1       1.00000000       0.00000000       0.00000000       0.00000000
H        4.20923268       2.43020162      24.58243212        1       1.00000000       0.00000000       0.00000000       0.00000000
H        3.05674563       2.21322797      29.74675866        0       1.00000000      -2.09960224       2.12229220      -1.03001269
H        0.98377726       1.71803799      29.49238174        0       1.00000000       0.18140729      -0.55694458      -2.06996055
H        1.57644553       2.75692455      39.10057651        0       1.00000000       1.75952045       0.04875452       0.77831628
H        4.31690296       2.87031644      40.10886671        0       1.00000000      -0.35497420       3.03931741       0.78081829
H        1.25953355       4.37078470      41.63751626        0       1.00000000      -1.10308308      -0.72698816       0.89965506
H        0.78217613       0.63637091      39.67350529        0       1.00000000       0.83242460       0.25943329       0.71937148
H        0.91787092       4.77911226      32.36311951        0       1.00000000      -0.77039459       0.93819349      -0.58988175
19
Lattice="5.612310241546866 0.0 0.0 0.0 4.860403243099165 0.0 0.0 0.0 44.58243212332868" Properties=species:S:1:pos:R:3:tags:I:1:masses:R:1:momenta:R:3 KEmax=24.559391461069055 iter=899 volume=1216.1236359717223 set_wall=T ns_energy=9.900100608802486 last_walked_iter_clone=634 ns_P=0.0 config_n_global=899 ns_KE=16.71939401360972 pbc="T T F"
H        1.40307756       0.81006721      20.00000000        3       1.00000000       0.00000000       0.00000000       0.00000000
H        4.20923268       0.81006721      20.00000000        3       1.00000000       0.00000000       0.00000000       0.00000000
H        0.00000000       3.24026883      20.00000000        3       1.00000000       0.00000000       0.00000000       0.00000000
H        2.80615512       3.24026883      20.00000000        3       1.00000000       0.00000000       0.00000000       0.00000000
H        0.00000000       1.62013441      22.29121606        2       1.00000000       0.00000000       0.00000000       0.00000000
H        2.80615512       1.62013441      22.29121606        2       1.00000000       0.00000000       0.00000000       0.00000000
H        1.40307756       4.05033604      22.29121606        2       1.00000000       0.00000000       0.00000000       0.00000000
H        4.20923268       4.05033604      22.29121606        2       1.00000000       0.00000000       0.00000000       0.00000000
H        0.00000000       0.00000000      24.58243212        1       1.00000000       0.00000000       0.00000000       0.00000000
H        2.80615512       0.00000000      24.58243212        1       1.00000000       0.00000000       0.00000000       0.00000000
H        1.40307756       2.43020162      24.58243212        1       1.00000000       0.00000000       0.00000000       0.00000000
H        4.20923268       2.43020162      24.58243212        1       1.00000000       0.00000000       0.00000000       0.00000000
H        1.43813712       3.56915534      38.37808643        0       1.00000000      -1.40832324      -0.03169090      -0.28828702
H        1.07382269       4.39208169      40.53642037        0       1.00000000       2.19162896       0.77095235      -1.64179917
H        2.28528831       2.51002957      34.95903295        0       1.00000000       1.52763949       1.58357877       1.02713828
H        2.15300507       4.88375580      43.05748295        0       1.00000000       0.73088533       0.84904143      -1.39331868
H        4.14997174       1.85966611      37.92318455        0       1.00000000      -2.77270710      -1.06950146       0.99968003
H        0.35629752       3.64758457      43.31202216        0       1.00000000       0.57211633      -0.26134126       0.92441282
H        0.95449801       3.85047848      28.16008996        0       1.00000000      -1.40008295      -0.18486914      -1.05342733
19
Lattice="5.612310241546866 0.0 0.0 0.0 4.860403243099165 0.0 0.0 0.0 44.58243212332868" Properties=species:S:1:pos:R:3:tags:I:1:masses:R:1:momenta:R:3 KEmax=24.559391461069055 iter=999 volume=1216.1236359717223 set_wall=T ns_energy=9.078291671735707 last_walked_iter_clone=902 ns_P=0.0 config_n_global=999 ns_KE=16.095379847135074 pbc="T T F"
H        1.40307756       0.81006721      20.00000000        3       1.00000000       0.00000000       0.00000000       0.00000000
H        4.20923268       0.81006721      20.00000000        3       1.00000000       0.00000000       0.00000000       0.00000000
H        0.00000000       3.24026883      20.00000000        3       1.00000000       0.00000000       0.00000000       0.00000000
H        2.80615512       3.24026883      20.00000000        3       1.00000000       0.00000000       0.00000000       0.00000000
H        0.00000000       1.62013441      22.29121606        2       1.00000000       0.00000000       0.00000000       0.00000000
H        2.80615512       1.62013441      22.29121606        2       1.00000000       0.00000000       0.00000000       0.00000000
H        1.40307756       4.05033604      22.29121606        2       1.00000000       0.00000000       0.00000000       0.00000000
H        4.20923268       4.05033604      22.29121606        2       1.00000000       0.00000000       0.00000000       0.00000000
H        0.00000000       0.00000000      24.58243212        1       1.00000000       0.00000000       0.00000000       0.00000000
H        2.80615512       0.00000000      24.58243212        1       1.00000000       0.00000000       0.00000000       0.00000000
H        1.40307756       2.43020162      24.58243212        1       1.00000000       0.00000000       0.00000000       0.00000000
H        4.20923268       2.43020162      24.58243212        1       1.00000000       0.00000000       0.00000000       0.00000000
H        4.24348702       1.29268996      29.83321066        0       1.00000000       2.14971161      -0.70736846       1.23515623
H        2.37887139       3.63737055      44.24850539        0       1.00000000      -1.09725893       1.65341611      -0.65485313
H        3.58440391       0.36543789      37.07467633        0       1.00000000      -1.41019227      -1.23003519       0.86196509
H        4.53202266       1.54498804      27.21824051        0       1.00000000      -0.24463295       0.38929880      -0.34339124
H        1.96547829       1.80152747      34.32891961        0       1.00000000       2.26113572       0.44593746       2.03371679
H        0.90872965       0.43300307      37.19787191        0       1.00000000       0.24362509       0.04272054      -0.06495181
H        2.49467477       1.58731664      26.52496271        0       1.00000000      -0.31864486       2.56528454      -0.63857642
19
Lattice="5.612310241546866 0.0 0.0 0.0 4.860403243099165 0.0 0.0 0.0 44.58243212332868" Properties=species:S:1:pos:R:3:tags:I:1:masses:R:1:momenta:R:3 KEmax=24.559391461069055 iter=1099 volume=1216.1236359717223 set_wall=T ns_energy=8.28883123732123 last_walked_iter_clone=914 ns_P=0.0 config_n_global=1099 ns_KE=16.380172755520306 pbc="T T F"
H        1.40307756       0.81006721      20.00000000        3       1.00000000       0.00000000       0.00000000       0.00000000
H        4.20923268       0.81006721      20.00000000        3       1.00000000       0.00000000       0.00000000       0.00000000
H        0.00000000       3.24026883      20.00000000        3       1.00000000       0.00000000       0.00000000       0.00000000
H        2.80615512       3.24026883      20.00000000        3       1.00000000       0.00000000       0.00000000       0.00000000
H        0.00000000       1.62013441      22.29121606        2       1.00000000       0.00000000       0.00000000       0.00000000
H        2.80615512       1.62013441      22.29121606        2       1.00000000       0.00000000       0.00000000       0.00000000
H        1.40307756       4.05033604      22.29121606        2       1.00000000       0.00000000       0.00000000       0.00000000
H        4.20923268       4.05033604      22.29121606        2       1.00000000       0.00000000       0.00000000       0.00000000
H        0.00000000       0.00000000      24.58243212        1       1.00000000       0.00000000       0.00000000       0.00000000
H        2.80615512       0.00000000      24.58243212        1       1.00000000       0.00000000       0.00000000       0.00000000