19
Lattice="5.612310241546866 0.0 0.0 0.0 4.860403243099165 0.0 0.0 0.0 44.58243212332868" Properties=species:S:1:pos:R:3:tags:I:1:masses:R:1:momenta:R:3:forces:R:3 KEmax=24.559391461069055 iter=76298 volume=1216.1236359717223 set_wall=T ns_energy=-12.535340216890104 last_walked_iter_clone=76194 energy=-12.53536072862665 stress="0.023700409318824393 -8.182306659365072e-06 6.671979173547234e-06 -8.182306659365072e-06 0.02382632882062957 -1.3030791815513748e-05 6.671979173547234e-06 -1.3030791815513748e-05 0.01149312854427881" pbc="T T F"
H        1.40307756       0.81006721      20.00000000        3       1.00000000       0.00000000       0.00000000       0.00000000       0.00000000       0.00000000       0.00000000
H        4.20923268       0.81006721      20.00000000        3       1.00000000       0.00000000       0.00000000       0.00000000       0.00000000       0.00000000       0.00000000
H        0.00000000       3.24026883      20.00000000        3       1.00000000       0.00000000       0.00000000       0.00000000       0.00000000       0.00000000       0.00000000
H        2.80615512       3.24026883      20.00000000        3       1.00000000       0.00000000       0.00000000       0.00000000       0.00000000       0.00000000       0.00000000
H        0.00000000       1.62013441      22.29121606        2       1.00000000       0.00000000       0.00000000       0.00000000       0.00000000       0.00000000       0.00000000
H        2.80615512       1.62013441      22.29121606        2       1.00000000       0.00000000       0.00000000       0.00000000       0.00000000       0.00000000       0.00000000
H        1.40307756       4.05033604      22.29121606        2       1.00000000       0.00000000       0.00000000       0.00000000       0.00000000       0.00000000       0.00000000
H        4.20923268       4.05033604      22.29121606        2       1.00000000       0.00000000       0.00000000       0.00000000       0.00000000       0.00000000       0.00000000
H        0.00000000       0.00000000      24.58243212        1       1.00000000       0.00000000       0.00000000       0.00000000       0.00000000       0.00000000       0.00000000
H        2.80615512       0.00000000      24.58243212        1       1.00000000       0.00000000       0.00000000       0.00000000       0.00000000       0.00000000       0.00000000
H        1.40307756       2.43020162      24.58243212        1       1.00000000       0.00000000       0.00000000       0.00000000       0.00000000       0.00000000       0.00000000
H        4.20923268       2.43020162      24.58243212        1       1.00000000       0.00000000       0.00000000       0.00000000       0.00000000       0.00000000       0.00000000
H        0.00705000       1.62542396      26.80211608        0       1.00000000      -0.00183781      -0.00000201      -0.00025150      -0.00243719      -0.00107994       0.00413260
H        2.79835917       1.62437614      26.79999755        0       1.00000000      -0.00019223       0.00124636      -0.00026388      -0.00108318      -0.00547876       0.00507580
H        0.00043960       4.86066349      29.01806108        0       1.00000000       0.00099890       0.00047519       0.00014631      -0.00157456       0.00161171      -0.00082822
H        1.40401884       4.03556923      26.79837089        0       1.00000000       0.00092390       0.00112770       0.00016458       0.00049966       0.00104771       0.00007052
H        2.80279226       4.86043784      29.01840898        0       1.00000000       0.00021522      -0.00045808       0.00258841      -0.00089253       0.00286369      -0.00166127
H        4.20998814       4.06022137      26.78332368        0       1.00000000       0.00115171      -0.00230144       0.00041043       0.00116745       0.00262559       0.00198839
H        4.20839269       2.43390921      29.01660519        0       1.00000000      -0.00040831       0.00231156       0.00007033       0.00303248      -0.00229763      -0.00151483
19
Lattice="5.612310241546866 0.0 0.0 0.0 4.860403243099165 0.0 0.0 0.0 44.58243212332868" Properties=species:S:1:pos:R:3:tags:I:1:masses:R:1:momenta:R:3:forces:R:3 KEmax=24.559391461069055 iter=76298 volume=1216.1236359717223 set_wall=T ns_energy=-12.535341649497102 last_walked_iter_clone=76282 energy=-12.53536072862665 stress="0.023700409318824393 -8.182306659365072e-06 6.671979173547234e-06 -8.182306659365072e-06 0.02382632882062957 -1.3030791815513748e-05 6.671979173547234e-06 -1.3030791815513748e-05 0.01149312854427881" pbc="T T F"
H        1.40307756       0.81006721      20.00000000        3       1.00000000       0.00000000       0.00000000       0.00000000       0.00000000       0.00000000       0.00000000
H        4.20923268       0.81006721      20.00000000        3       1.00000000       0.00000000       0.00000000       0.00000000       0.00000000       0.00000000       0.00000000
H        0.00000000       3.24026883      20.00000000        3       1.00000000       0.00000000       0.00000000       0.00000000       0.00000000       0.00000000       0.00000000
H        2.80615512       3.24026883      20.00000000        3       1.00000000       0.00000000       0.00000000       0.00000000       0.00000000       0.00000000       0.00000000
H        0.00000000       1.62013441      22.29121606        2       1.00000000       0.00000000       0.00000000       0.00000000       0.00000000       0.00000000       0.00000000
H        2.80615512       1.62013441      22.29121606        2       1.00000000       0.00000000       0.00000000       0.00000000       0.00000000       0.00000000       0.00000000
H        1.40307756       4.05033604      22.29121606        2       1.00000000       0.00000000       0.00000000       0.00000000       0.00000000       0.00000000       0.00000000
H        4.20923268       4.05033604      22.29121606        2       1.00000000       0.00000000       0.00000000       0.00000000       0.00000000       0.00000000       0.00000000
H        0.00000000       0.00000000      24.58243212        1       1.00000000       0.00000000       0.00000000       0.00000000       0.00000000       0.00000000       0.00000000
H        2.80615512       0.00000000      24.58243212        1       1.00000000       0.00000000       0.00000000       0.00000000       0.00000000       0.00000000       0.00000000
H        1.40307756       2.43020162      24.58243212        1       1.00000000       0.00000000       0.00000000       0.00000000       0.00000000       0.00000000       0.00000000
H        4.20923268       2.43020162      24.58243212        1       1.00000000       0.00000000       0.00000000       0.00000000       0.00000000       0.00000000       0.00000000
H        0.00690065       1.62366101      26.80060454        0       1.00000000      -0.00200956      -0.00017816       0.00094600      -0.00243719      -0.00107994       0.00413260
H        2.79776356       1.62448759      26.80107509        0       1.00000000       0.00330330      -0.00025726       0.00055159      -0.00108318      -0.00547876       0.00507580
H        0.00155933      -0.00095202      29.01931226        0       1.00000000       0.00033272       0.00030175       0.00049649      -0.00157456       0.00161171      -0.00082822
H        1.40224889       4.03540727      26.79922122        0       1.00000000       0.00148115      -0.00107072       0.00115557       0.00049966       0.00104771       0.00007052
H        2.80333021       0.00022994      29.01866742        0       1.00000000      -0.00076333       0.00033629      -0.00141847      -0.00089253       0.00286369      -0.00166127
H        4.20835175       4.05876594      26.78231685        0       1.00000000       0.00074185       0.00161945      -0.00185340       0.00116745       0.00262559       0.00198839
H        4.21056837       2.43288219      29.01679000        0       1.00000000       0.00252825       0.00276414      -0.00154265       0.00303248      -0.00229763      -0.00151483
19
Lattice="5.612310241546866 0.0 0.0 0.0 4.860403243099165 0.0 0.0 0.0 44.58243212332868" Properties=species:S:1:pos:R:3:tags:I:1:masses:R:1:momenta:R:3:forces:R:3 KEmax=24.559391461069055 iter=76298 volume=1216.1236359717223 set_wall=T ns_energy=-12.535340646313003 last_walked_iter_clone=76247 energy=-12.53536072862665 stress="0.023700409318824393 -8.182306659365072e-06 6.671979173547234e-06 -8.182306659365072e-06 0.02382632882062957 -1.3030791815513748e-05 6.671979173547234e-06 -1.3030791815513748e-05 0.01149312854427881" pbc="T T F"
H        1.40307756       0.81006721      20.00000000        3       1.00000000       0.00000000       0.00000000       0.00000000       0.00000000       0.00000000       0.00000000
H        4.20923268       0.81006721      20.00000000        3       1.00000000       0.00000000       0.00000000       0.00000000       0.00000000       0.00000000       0.00000000
H        0.00000000       3.24026883      20.00000000        3       1.00000000       0.00000000       0.00000000       0.00000000       0.00000000       0.00000000       0.00000000
H        2.80615512       3.24026883      20.00000000        3       1.00000000       0.00000000       0.00000000       0.00000000       0.00000000       0.00000000       0.00000000
H        0.00000000       1.62013441      22.29121606        2       1.00000000       0.00000000       0.00000000       0.00000000       0.00000000       0.00000000       0.00000000
H        2.80615512       1.62013441      22.29121606        2       1.00000000       0.00000000       0.00000000       0.00000000       0.00000000       0.00000000       0.00000000
H        1.40307756       4.05033604      22.29121606        2       1.00000000       0.00000000       0.00000000       0.00000000       0.00000000       0.00000000       0.00000000
H        4.20923268       4.05033604      22.29121606        2       1.00000000       0.00000000       0.00000000       0.00000000       0.00000000       0.00000000       0.00000000
H        0.00000000       0.00000000      24.58243212        1       1.00000000       0.00000000       0.00000000       0.00000000       0.00000000       0.00000000       0.00000000
H        2.80615512       0.00000000      24.58243212        1       1.00000000       0.00000000       0.00000000       0.00000000       0.00000000       0.00000000       0.00000000
H        1.40307756       2.43020162      24.58243212        1       1.00000000       0.00000000       0.00000000       0.00000000       0.00000000       0.00000000       0.00000000
H        4.20923268       2.43020162      24.58243212        1       1.00000000       0.00000000       0.00000000       0.00000000       0.00000000       0.00000000       0.00000000
H        0.00789169       1.62433132      26.80168898        0       1.00000000       0.00097282      -0.00301011      -0.00180342      -0.00243719      -0.00107994       0.00413260
H        2.79904450       1.62344345      26.80156992        0       1.00000000      -0.00229702      -0.00280657       0.00257193      -0.00108318      -0.00547876       0.00507580
H        0.00164604       4.85928819      29.01821120        0       1.00000000       0.00174334      -0.00059491       0.00097583      -0.00157456       0.00161171      -0.00082822
H        1.40305841       4.03590995      26.79977425        0       1.00000000       0.00130224       0.00113771      -0.00057825       0.00049966       0.00104771       0.00007052
H        2.80399246       4.85905358      29.01968116        0       1.00000000       0.00122016       0.00051852      -0.00073235      -0.00089253       0.00286369      -0.00166127
H        4.20976585       4.05774893      26.78269979        0       1.00000000      -0.00050780      -0.00089661       0.00048893       0.00116745       0.00262559       0.00198839
H        4.20919355       2.43349637      29.01620395        0       1.00000000      -0.00071415       0.00019305      -0.00048355       0.00303248      -0.00229763      -0.00151483
19
Lattice="5.612310241546866 0.0 0.0 0.0 4.860403243099165 0.0 0.0 0.0 44.58243212332868" Properties=species:S:1:pos:R:3:tags:I:1:masses:R:1:momenta:R:3:forces:R:3 KEmax=24.559391461069055 iter=76298 volume=1216.1236359717223 set_wall=T ns_energy=-12.535340289966376 last_walked_iter_clone=75990 energy=-12.53536072862665 stress="0.023700409318824393 -8.182306659365072e-06 6.671979173547234e-06 -8.182306659365072e-06 0.02382632882062957 -1.3030791815513748e-05 6.671979173547234e-06 -1.3030791815513748e-05 0.01149312854427881" pbc="T T F"
H        1.40307756       0.81006721      20.00000000        3       1.00000000       0.00000000       0.00000000       0.00000000       0.00000000       0.00000000       0.00000000
H        4.20923268       0.81006721      20.00000000        3       1.00000000       0.00000000       0.00000000       0.00000000       0.00000000       0.00000000       0.00000000
H        0.00000000       3.24026883      20.00000000        3       1.00000000       0.00000000       0.00000000       0.00000000       0.00000000       0.00000000       0.00000000
H        2.80615512       3.24026883      20.00000000        3       1.00000000       0.00000000       0.00000000       0.00000000       0.00000000       0.00000000       0.00000000
H        0.00000000       1.62013441      22.29121606        2       1.00000000       0.00000000       0.00000000       0.00000000       0.00000000       0.00000000       0.00000000
H        2.80615512       1.62013441      22.29121606        2       1.00000000       0.00000000       0.00000000       0.00000000       0.00000000       0.00000000       0.00000000
H        1.40307756       4.05033604      22.29121606        2       1.00000000       0.00000000       0.00000000       0.00000000       0.00000000       0.00000000       0.00000000
H        4.20923268       4.05033604      22.29121606        2       1.00000000       0.00000000       0.00000000       0.00000000       0.00000000       0.00000000       0.00000000
H        0.00000000       0.00000000      24.58243212        1       1.00000000       0.00000000       0.00000000       0.00000000       0.00000000       0.00000000       0.00000000
H        2.80615512       0.00000000      24.58243212        1       1.00000000       0.00000000       0.00000000       0.00000000       0.00000000       0.00000000       0.00000000
H        1.40307756       2.43020162      24.58243212        1       1.00000000       0.00000000       0.00000000       0.00000000       0.00000000       0.00000000       0.00000000
H        4.20923268       2.43020162      24.58243212        1       1.00000000       0.00000000       0.00000000       0.00000000       0.00000000       0.00000000       0.00000000
H        0.00824322       1.62450878      26.80170697        0       1.00000000       0.00141021      -0.00165102      -0.00034894      -0.00243719      -0.00107994       0.00413260
H        2.79902466       1.62325617      26.80102171        0       1.00000000       0.00117139      -0.00114844       0.00182659      -0.00108318      -0.00547876       0.00507580
H        0.00132825       4.85941479      29.01926532        0       1.00000000      -0.00038596       0.00220481       0.00089086      -0.00157456       0.00161171      -0.00082822
H        1.40391949       4.03490254      26.79992123        0       1.00000000      -0.00137139      -0.00099350       0.00046725       0.00049966       0.00104771       0.00007052
H        2.80314721       4.85782151      29.01860941        0       1.00000000      -0.00012109      -0.00091691      -0.00207547      -0.00089253       0.00286369      -0.00166127
H        4.20962590       4.05697944      26.78321920        0       1.00000000       0.00188502       0.00155402      -0.00039445       0.00116745       0.00262559       0.00198839
H        4.20841884       2.43249420      29.01715910        0       1.00000000       0.00046549      -0.00084405       0.00346503       0.00303248      -0.00229763      -0.00151483
19
Lattice="5.612310241546866 0.0 0.0 0.0 4.860403243099165 0.0 0.0 0.0 44.58243212332868" Properties=species:S:1:pos:R:3:tags:I:1:masses:R:1:momenta:R:3:forces:R:3 KEmax=24.559391461069055 iter=76298 volume=1216.1236359717223 set_wall=T ns_energy=-12.535340449605666 last_walked_iter_clone=76269 energy=-12.53536072862665 stress="0.023700409318824393 -8.182306659365072e-06 6.671979173547234e-06 -8.182306659365072e-06 0.02382632882062957 -1.3030791815513748e-05 6.671979173547234e-06 -1.3030791815513748e-05 0.01149312854427881" pbc="T T F"
H        1.40307756       0.81006721      20.00000000        3       1.00000000       0.00000000       0.00000000       0.00000000       0.00000000       0.00000000       0.00000000
H        4.20923268       0.81006721      20.00000000        3       1.00000000       0.00000000       0.00000000       0.00000000       0.00000000       0.00000000       0.00000000
H        0.00000000       3.24026883      20.00000000        3       1.00000000       0.00000000       0.00000000       0.00000000       0.00000000       0.00000000       0.00000000
H        2.80615512       3.24026883      20.00000000        3       1.00000000       0.00000000       0.00000000       0.00000000       0.00000000       0.00000000       0.00000000
H        0.00000000       1.62013441      22.29121606        2       1.00000000       0.00000000       0.00000000       0.00000000       0.00000000       0.00000000       0.00000000
H        2.80615512       1.62013441      22.29121606        2       1.00000000       0.00000000       0.00000000       0.00000000       0.00000000       0.00000000       0.00000000
H        1.40307756       4.05033604      22.29121606        2       1.00000000       0.00000000       0.00000000       0.00000000       0.00000000       0.00000000       0.00000000
H        4.20923268       4.05033604      22.29121606        2       1.00000000       0.00000000       0.00000000       0.00000000       0.00000000       0.00000000       0.00000000
H        0.00000000       0.00000000      24.58243212        1       1.00000000       0.00000000       0.00000000       0.00000000       0.00000000       0.00000000       0.00000000
H        2.80615512       0.00000000      24.58243212        1       1.00000000       0.00000000       0.00000000       0.00000000       0.00000000       0.00000000       0.00000000
H        1.40307756       2.43020162      24.58243212        1       1.00000000       0.00000000       0.00000000       0.00000000       0.00000000       0.00000000       0.00000000
H        4.20923268       2.43020162      24.58243212        1       1.00000000       0.00000000       0.00000000       0.00000000       0.00000000       0.00000000       0.00000000
H        0.00766280       1.62485058      26.80156578        0       1.00000000      -0.00043438      -0.00019080      -0.00080154      -0.00243719      -0.00107994       0.00413260
H        2.79972536       1.62308500      26.80067770        0       1.00000000      -0.00150830       0.00031746      -0.00089126      -0.00108318      -0.00547876       0.00507580
H        0.00387576       4.86232703      29.01835963        0       1.00000000       0.00086546      -0.00107492       0.00075055      -0.00157456       0.00161171      -0.00082822
H        1.40426776       4.03392624      26.79848333        0       1.00000000       0.00206216       0.00132897       0.00134188       0.00049966       0.00104771       0.00007052
H        2.80424473      -0.00025409      29.01894616        0       1.00000000       0.00001779       0.00028157       0.00052719      -0.00089253       0.00286369      -0.00166127
H        4.21097893       4.05891268      26.78350129        0       1.00000000      -0.00212871       0.00170897      -0.00053517       0.00116745       0.00262559       0.00198839
H        4.20923792       2.43546675      29.01524793        0       1.00000000       0.00007396       0.00080322      -0.00016261       0.00303248      -0.00229763      -0.00151483
19
Lattice="5.612310241546866 0.0 0.0 0.0 4.860403243099165 0.0 0.0 0.0 44.58243212332868" Properties=species:S:1:pos:R:3:tags:I:1:masses:R:1:momenta:R:3:forces:R:3 KEmax=24.559391461069055 iter=76298 volume=1216.1236359717223 set_wall=T ns_energy=-12.53534041316377 last_walked_iter_clone=76127 energy=-12.53536072862665 stress="0.023700409318824393 -8.182306659365072e-06 6.671979173547234e-06 -8.182306659365072e-06 0.02382632882062957 -1.3030791815513748e-05 6.671979173547234e-06 -1.3030791815513748e-05 0.01149312854427881" pbc="T T F"
H        1.40307756       0.81006721      20.00000000        3       1.00000000       0.00000000       0.00000000       0.00000000       0.00000000       0.00000000       0.00000000
H        4.20923268       0.81006721      20.00000000        3       1.00000000       0.00000000       0.00000000       0.00000000       0.00000000       0.00000000       0.00000000
H        0.00000000       3.24026883      20.00000000        3       1.00000000       0.00000000       0.00000000       0.00000000       0.00000000       0.00000000       0.00000000
H        2.80615512       3.24026883      20.00000000        3       1.00000000       0.00000000       0.00000000       0.00000000       0.00000000       0.00000000       0.00000000
H        0.00000000       1.62013441      22.29121606        2       1.00000000       0.00000000       0.00000000       0.00000000       0.00000000       0.00000000       0.00000000
H        2.80615512       1.62013441      22.29121606        2       1.00000000       0.00000000       0.00000000       0.00000000       0.00000000       0.00000000       0.00000000
H        1.40307756       4.05033604      22.29121606        2       1.00000000       0.00000000       0.00000000       0.00000000       0.00000000       0.00000000       0.00000000
H        4.20923268       4.05033604      22.29121606        2       1.00000000       0.00000000       0.00000000       0.00000000       0.00000000       0.00000000       0.00000000
H        0.00000000       0.00000000      24.58243212        1       1.00000000       0.00000000       0.00000000       0.00000000       0.00000000       0.00000000       0.00000000
H        2.80615512       0.00000000      24.58243212        1       1.00000000       0.00000000       0.00000000       0.00000000       0.00000000       0.00000000       0.00000000
H        1.40307756       2.43020162      24.58243212        1       1.00000000       0.00000000       0.00000000       0.00000000       0.00000000       0.00000000       0.00000000
H        4.20923268       2.43020162      24.58243212        1       1.00000000       0.00000000       0.00000000       0.00000000       0.00000000       0.00000000       0.00000000
H        0.00803143       1.62399216      26.80162277        0       1.00000000      -0.00077736       0.00321032       0.00177674      -0.00243719      -0.00107994       0.00413260
H        2.79900056       1.62433746      26.80113026        0       1.00000000      -0.00123344       0.00179401       0.00141454      -0.00108318      -0.00547876       0.00507580
H        0.00007199      -0.00077180      29.01887251        0       1.00000000       0.00160727       0.00167047       0.00044974      -0.00157456       0.00161171      -0.00082822
H        1.40291471       4.03395067      26.79857985        0       1.00000000      -0.00025350       0.00057000       0.00001437       0.00049966       0.00104771       0.00007052
H        2.80138182      -0.00150016      29.01793064        0       1.00000000      -0.00045752       0.00092151      -0.00007747      -0.00089253       0.00286369      -0.00166127
H        4.20891011       4.05838276      26.78261802        0       1.00000000       0.00155691       0.00030422      -0.00347581       0.00116745       0.00262559       0.00198839
H        4.20900565       2.43476924      29.01750282        0       1.00000000      -0.00012796      -0.00173097      -0.00119485       0.00303248      -0.00229763      -0.00151483
19
Lattice="5.612310241546866 0.0 0.0 0.0 4.860403243099165 0.0 0.0 0.0 44.58243212332868" Properties=species:S:1:pos:R:3:tags:I:1:masses:R:1:momenta:R:3:forces:R:3 KEmax=24.559391461069055 iter=76298 volume=1216.1236359717223 set_wall=T ns_energy=-12.535341051839113 last_walked_iter_clone=76265 energy=-12.53536072862665 stress="0.023700409318824393 -8.182306659365072e-06 6.671979173547234e-06 -8.182306659365072e-06 0.02382632882062957 -1.3030791815513748e-05 6.671979173547234e-06 -1.3030791815513748e-05 0.01149312854427881" pbc="T T F"
H        1.40307756       0.81006721      20.00000000        3       1.00000000       0.00000000       0.00000000       0.00000000       0.00000000       0.00000000       0.00000000
H        4.20923268       0.81006721      20.00000000        3       1.00000000       0.00000000       0.00000000       0.00000000       0.00000000       0.00000000       0.00000000
H        0.00000000       3.24026883      20.00000000        3       1.00000000       0.00000000       0.00000000       0.00000000       0.00000000       0.00000000       0.00000000
H        2.80615512       3.24026883      20.00000000        3       1.00000000       0.00000000       0.00000000       0.00000000       0.00000000       0.00000000       0.00000000
H        0.00000000       1.62013441      22.29121606        2       1.00000000       0.00000000       0.00000000       0.00000000       0.00000000       0.00000000       0.00000000
H        2.80615512       1.62013441      22.29121606        2       1.00000000       0.00000000       0.00000000       0.00000000       0.00000000       0.00000000       0.00000000
H        1.40307756       4.05033604      22.29121606        2       1.00000000       0.00000000       0.00000000       0.00000000       0.00000000       0.00000000       0.00000000
H        4.20923268       4.05033604      22.29121606        2       1.00000000       0.00000000       0.00000000       0.00000000       0.00000000       0.00000000       0.00000000
H        0.00000000       0.00000000      24.58243212        1       1.00000000       0.00000000       0.00000000       0.00000000       0.00000000       0.00000000       0.00000000
H        2.80615512       0.00000000      24.58243212        1       1.00000000       0.00000000       0.00000000       0.00000000       0.00000000       0.00000000       0.00000000
H        1.40307756       2.43020162      24.58243212        1       1.00000000       0.00000000       0.00000000       0.00000000       0.00000000       0.00000000       0.00000000
H        4.20923268       2.43020162      24.58243212        1       1.00000000       0.00000000       0.00000000       0.00000000       0.00000000       0.00000000       0.00000000
H        0.00752852       1.62423978      26.79995914        0       1.00000000       0.00037293      -0.00254827       0.00020476      -0.00243719      -0.00107994       0.00413260
H        2.79811966       1.62450668      26.80113750        0       1.00000000      -0.00078086       0.00052748      -0.00116281      -0.00108318      -0.00547876       0.00507580
H       -0.00051454      -0.00016814      29.01677057        0       1.00000000      -0.00037416       0.00003409      -0.00038177      -0.00157456       0.00161171      -0.00082822
H        1.40155782       4.03461955      26.79985304        0       1.00000000       0.00140747       0.00324762       0.00242726       0.00049966       0.00104771       0.00007052
H        2.80148752       0.00101885      29.01862404        0       1.00000000       0.00036440       0.00011479       0.00174292      -0.00089253       0.00286369      -0.00166127
H        4.20763028       4.05929030      26.78220718        0       1.00000000      -0.00064568       0.00028217       0.00099510       0.00116745       0.00262559       0.00198839
H        4.20851471       2.43377742      29.01504900        0       1.00000000       0.00023526       0.00100734      -0.00103964       0.00303248      -0.00229763      -0.00151483
19
Lattice="5.612310241546866 0.0 0.0 0.0 4.860403243099165 0.0 0.0 0.0 44.58243212332868" Properties=species:S:1:pos:R:3:tags:I:1:masses:R:1:momenta:R:3:forces:R:3 KEmax=24.559391461069055 iter=76298 volume=1216.1236359717223 set_wall=T ns_energy=-12.53533972585189 last_walked_iter_clone=76189 energy=-12.53536072862665 stress="0.023700409318824393 -8.182306659365072e-06 6.671979173547234e-06 -8.182306659365072e-06 0.02382632882062957 -1.3030791815513748e-05 6.671979173547234e-06 -1.3030791815513748e-05 0.01149312854427881" pbc="T T F"
H        1.40307756       0.81006721      20.00000000        3       1.00000000       0.00000000       0.00000000       0.00000000       0.00000000       0.00000000       0.00000000
H        4.20923268       0.81006721      20.00000000        3       1.00000000       0.00000000       0.00000000       0.00000000       0.00000000       0.00000000       0.00000000
H        0.00000000       3.24026883      20.00000000        3       1.00000000       0.00000000       0.00000000       0.00000000       0.00000000       0.00000000       0.00000000
H        2.80615512       3.24026883      20.00000000        3       1.00000000       0.00000000       0.00000000       0.00000000       0.00000000       0.00000000       0.00000000
H        0.00000000       1.62013441      22.29121606        2       1.00000000       0.00000000       0.00000000       0.00000000       0.00000000       0.00000000       0.00000000
H        2.80615512       1.62013441      22.29121606        2       1.00000000       0.00000000       0.00000000       0.00000000       0.00000000       0.00000000       0.00000000
H        1.40307756       4.05033604      22.29121606        2       1.00000000       0.00000000       0.00000000       0.00000000       0.00000000       0.00000000       0.00000000