19
Lattice="5.612310241546866 0.0 0.0 0.0 4.860403243099165 0.0 0.0 0.0 44.58243212332868" Properties=species:S:1:pos:R:3:tags:I:1:masses:R:1:momenta:R:3:forces:R:3 KEmax=24.559391461069055 iter=100351 volume=1216.1236359717223 set_wall=T ns_energy=-12.535374882752876 last_walked_iter_clone=100252 energy=-12.535375005639468 stress="0.023723971601374256 8.597248986181852e-07 2.9021780833749804e-06 8.597248986181852e-07 0.023823553394249304 -5.102837541297776e-08 2.9021780833749804e-06 -5.102837541297776e-08 0.011532256555761889" pbc="T T F"
H        1.40307756       0.81006721      20.00000000        3       1.00000000       0.00000000       0.00000000       0.00000000       0.00000000       0.00000000       0.00000000
H        4.20923268       0.81006721      20.00000000        3       1.00000000       0.00000000       0.00000000       0.00000000       0.00000000       0.00000000       0.00000000
H        0.00000000       3.24026883      20.00000000        3       1.00000000       0.00000000       0.00000000       0.00000000       0.00000000       0.00000000       0.00000000
H        2.80615512       3.24026883      20.00000000        3       1.00000000       0.00000000       0.00000000       0.00000000       0.00000000       0.00000000       0.00000000
H        0.00000000       1.62013441      22.29121606        2       1.00000000       0.00000000       0.00000000       0.00000000       0.00000000       0.00000000       0.00000000
H        2.80615512       1.62013441      22.29121606        2       1.00000000       0.00000000       0.00000000       0.00000000       0.00000000       0.00000000       0.00000000
H        1.40307756       4.05033604      22.29121606        2       1.00000000       0.00000000       0.00000000       0.00000000       0.00000000       0.00000000       0.00000000
H        4.20923268       4.05033604      22.29121606        2       1.00000000       0.00000000       0.00000000       0.00000000       0.00000000       0.00000000       0.00000000
H        0.00000000       0.00000000      24.58243212        1       1.00000000       0.00000000       0.00000000       0.00000000       0.00000000       0.00000000       0.00000000
H        2.80615512       0.00000000      24.58243212        1       1.00000000       0.00000000       0.00000000       0.00000000       0.00000000       0.00000000       0.00000000
H        1.40307756       2.43020162      24.58243212        1       1.00000000       0.00000000       0.00000000       0.00000000       0.00000000       0.00000000       0.00000000
H        4.20923268       2.43020162      24.58243212        1       1.00000000       0.00000000       0.00000000       0.00000000       0.00000000       0.00000000       0.00000000
H        0.00758926       1.62386040      26.80136573        0       1.00000000      -0.00005733       0.00000967       0.00021876      -0.00027836      -0.00029574       0.00038463
H        2.79863083       1.62381626      26.80130733        0       1.00000000      -0.00010531       0.00005639      -0.00017402      -0.00017274       0.00036885      -0.00025678
H        0.00229534       4.86004426      29.01863539        0       1.00000000      -0.00008411       0.00000534      -0.00012098       0.00013687      -0.00043125      -0.00018523
H        1.40319813       4.03421909      26.79922484        0       1.00000000       0.00011615      -0.00007778       0.00012754       0.00042506       0.00014277      -0.00004191
H        2.80401387       4.86001675      29.01856153        0       1.00000000       0.00007611       0.00010456       0.00024160      -0.00008991       0.00003840      -0.00013356
H        4.20938574       4.05830575      26.78226965        0       1.00000000       0.00000833       0.00002413       0.00006617      -0.00044517      -0.00006735      -0.00014759
H        4.20921282       2.43397022      29.01713148        0       1.00000000       0.00005627      -0.00008112      -0.00003530       0.00002644       0.00032146      -0.00029408
19
Lattice="5.612310241546866 0.0 0.0 0.0 4.860403243099165 0.0 0.0 0.0 44.58243212332868" Properties=species:S:1:pos:R:3:tags:I:1:masses:R:1:momenta:R:3:forces:R:3 KEmax=24.559391461069055 iter=100351 volume=1216.1236359717223 set_wall=T ns_energy=-12.535374878854114 last_walked_iter_clone=100144 energy=-12.535375005639468 stress="0.023723971601374256 8.597248986181852e-07 2.9021780833749804e-06 8.597248986181852e-07 0.023823553394249304 -5.102837541297776e-08 2.9021780833749804e-06 -5.102837541297776e-08 0.011532256555761889" pbc="T T F"
H        1.40307756       0.81006721      20.00000000        3       1.00000000       0.00000000       0.00000000       0.00000000       0.00000000       0.00000000       0.00000000
H        4.20923268       0.81006721      20.00000000        3       1.00000000       0.00000000       0.00000000       0.00000000       0.00000000       0.00000000       0.00000000
H        0.00000000       3.24026883      20.00000000        3       1.00000000       0.00000000       0.00000000       0.00000000       0.00000000       0.00000000       0.00000000
H        2.80615512       3.24026883      20.00000000        3       1.00000000       0.00000000       0.00000000       0.00000000       0.00000000       0.00000000       0.00000000
H        0.00000000       1.62013441      22.29121606        2       1.00000000       0.00000000       0.00000000       0.00000000       0.00000000       0.00000000       0.00000000
H        2.80615512       1.62013441      22.29121606        2       1.00000000       0.00000000       0.00000000       0.00000000       0.00000000       0.00000000       0.00000000
H        1.40307756       4.05033604      22.29121606        2       1.00000000       0.00000000       0.00000000       0.00000000       0.00000000       0.00000000       0.00000000
H        4.20923268       4.05033604      22.29121606        2       1.00000000       0.00000000       0.00000000       0.00000000       0.00000000       0.00000000       0.00000000
H        0.00000000       0.00000000      24.58243212        1       1.00000000       0.00000000       0.00000000       0.00000000       0.00000000       0.00000000       0.00000000
H        2.80615512       0.00000000      24.58243212        1       1.00000000       0.00000000       0.00000000       0.00000000       0.00000000       0.00000000       0.00000000
H        1.40307756       2.43020162      24.58243212        1       1.00000000       0.00000000       0.00000000       0.00000000       0.00000000       0.00000000       0.00000000
H        4.20923268       2.43020162      24.58243212        1       1.00000000       0.00000000       0.00000000       0.00000000       0.00000000       0.00000000       0.00000000
H        0.00767773       1.62410130      26.80115462        0       1.00000000       0.00011941       0.00002852      -0.00032121      -0.00027836      -0.00029574       0.00038463
H        2.79874140       1.62399908      26.80127922        0       1.00000000       0.00003627      -0.00001026      -0.00010107      -0.00017274       0.00036885      -0.00025678
H        0.00217614       4.86025655      29.01863162        0       1.00000000      -0.00005349      -0.00027713       0.00004003       0.00013687      -0.00043125      -0.00018523
H        1.40306527       4.03436367      26.79921879        0       1.00000000       0.00007536      -0.00007817      -0.00016042       0.00042506       0.00014277      -0.00004191
H        2.80407135       4.86003652      29.01856098        0       1.00000000       0.00007685       0.00004071       0.00012776      -0.00008991       0.00003840      -0.00013356
H        4.20933179       4.05835416      26.78225575        0       1.00000000      -0.00025526      -0.00004224      -0.00019877      -0.00044517      -0.00006735      -0.00014759
H        4.20948987       2.43411388      29.01664171        0       1.00000000      -0.00012445       0.00001560      -0.00004604       0.00002644       0.00032146      -0.00029408
19
Lattice="5.612310241546866 0.0 0.0 0.0 4.860403243099165 0.0 0.0 0.0 44.58243212332868" Properties=species:S:1:pos:R:3:tags:I:1:masses:R:1:momenta:R:3:forces:R:3 KEmax=24.559391461069055 iter=100351 volume=1216.1236359717223 set_wall=T ns_energy=-12.53537487679055 last_walked_iter_clone=100190 energy=-12.535375005639468 stress="0.023723971601374256 8.597248986181852e-07 2.9021780833749804e-06 8.597248986181852e-07 0.023823553394249304 -5.102837541297776e-08 2.9021780833749804e-06 -5.102837541297776e-08 0.011532256555761889" pbc="T T F"
H        1.40307756       0.81006721      20.00000000        3       1.00000000       0.00000000       0.00000000       0.00000000       0.00000000       0.00000000       0.00000000
H        4.20923268       0.81006721      20.00000000        3       1.00000000       0.00000000       0.00000000       0.00000000       0.00000000       0.00000000       0.00000000
H        0.00000000       3.24026883      20.00000000        3       1.00000000       0.00000000       0.00000000       0.00000000       0.00000000       0.00000000       0.00000000
H        2.80615512       3.24026883      20.00000000        3       1.00000000       0.00000000       0.00000000       0.00000000       0.00000000       0.00000000       0.00000000
H        0.00000000       1.62013441      22.29121606        2       1.00000000       0.00000000       0.00000000       0.00000000       0.00000000       0.00000000       0.00000000
H        2.80615512       1.62013441      22.29121606        2       1.00000000       0.00000000       0.00000000       0.00000000       0.00000000       0.00000000       0.00000000
H        1.40307756       4.05033604      22.29121606        2       1.00000000       0.00000000       0.00000000       0.00000000       0.00000000       0.00000000       0.00000000
H        4.20923268       4.05033604      22.29121606        2       1.00000000       0.00000000       0.00000000       0.00000000       0.00000000       0.00000000       0.00000000
H        0.00000000       0.00000000      24.58243212        1       1.00000000       0.00000000       0.00000000       0.00000000       0.00000000       0.00000000       0.00000000
H        2.80615512       0.00000000      24.58243212        1       1.00000000       0.00000000       0.00000000       0.00000000       0.00000000       0.00000000       0.00000000
H        1.40307756       2.43020162      24.58243212        1       1.00000000       0.00000000       0.00000000       0.00000000       0.00000000       0.00000000       0.00000000
H        4.20923268       2.43020162      24.58243212        1       1.00000000       0.00000000       0.00000000       0.00000000       0.00000000       0.00000000       0.00000000
H        0.00763332       1.62406354      26.80136673        0       1.00000000      -0.00024507       0.00006945      -0.00008453      -0.00027836      -0.00029574       0.00038463
H        2.79852285       1.62393655      26.80115310        0       1.00000000      -0.00008191      -0.00019437       0.00016963      -0.00017274       0.00036885      -0.00025678
H        0.00207721       4.86024251      29.01865137        0       1.00000000       0.00017890       0.00005468       0.00010740       0.00013687      -0.00043125      -0.00018523
H        1.40308818       4.03434709      26.79938660        0       1.00000000       0.00009453      -0.00001057      -0.00007947       0.00042506       0.00014277      -0.00004191
H        2.80395536       4.86017694      29.01852647        0       1.00000000      -0.00002156       0.00006230      -0.00030362      -0.00008991       0.00003840      -0.00013356
H        4.20926538       4.05833586      26.78228151        0       1.00000000      -0.00006788      -0.00012767       0.00015718      -0.00044517      -0.00006735      -0.00014759
H        4.20910531       2.43413730      29.01674395        0       1.00000000      -0.00015208       0.00016847      -0.00031091       0.00002644       0.00032146      -0.00029408
19
Lattice="5.612310241546866 0.0 0.0 0.0 4.860403243099165 0.0 0.0 0.0 44.58243212332868" Properties=species:S:1:pos:R:3:tags:I:1:masses:R:1:momenta:R:3:forces:R:3 KEmax=24.559391461069055 iter=100351 volume=1216.1236359717223 set_wall=T ns_energy=-12.5353748782039 last_walked_iter_clone=100208 energy=-12.535375005639468 stress="0.023723971601374256 8.597248986181852e-07 2.9021780833749804e-06 8.597248986181852e-07 0.023823553394249304 -5.102837541297776e-08 2.9021780833749804e-06 -5.102837541297776e-08 0.011532256555761889" pbc="T T F"
H        1.40307756       0.81006721      20.00000000        3       1.00000000       0.00000000       0.00000000       0.00000000       0.00000000       0.00000000       0.00000000
H        4.20923268       0.81006721      20.00000000        3       1.00000000       0.00000000       0.00000000       0.00000000       0.00000000       0.00000000       0.00000000
H        0.00000000       3.24026883      20.00000000        3       1.00000000       0.00000000       0.00000000       0.00000000       0.00000000       0.00000000       0.00000000
H        2.80615512       3.24026883      20.00000000        3       1.00000000       0.00000000       0.00000000       0.00000000       0.00000000       0.00000000       0.00000000
H        0.00000000       1.62013441      22.29121606        2       1.00000000       0.00000000       0.00000000       0.00000000       0.00000000       0.00000000       0.00000000
H        2.80615512       1.62013441      22.29121606        2       1.00000000       0.00000000       0.00000000       0.00000000       0.00000000       0.00000000       0.00000000
H        1.40307756       4.05033604      22.29121606        2       1.00000000       0.00000000       0.00000000       0.00000000       0.00000000       0.00000000       0.00000000
H        4.20923268       4.05033604      22.29121606        2       1.00000000       0.00000000       0.00000000       0.00000000       0.00000000       0.00000000       0.00000000
H        0.00000000       0.00000000      24.58243212        1       1.00000000       0.00000000       0.00000000       0.00000000       0.00000000       0.00000000       0.00000000
H        2.80615512       0.00000000      24.58243212        1       1.00000000       0.00000000       0.00000000       0.00000000       0.00000000       0.00000000       0.00000000
H        1.40307756       2.43020162      24.58243212        1       1.00000000       0.00000000       0.00000000       0.00000000       0.00000000       0.00000000       0.00000000
H        4.20923268       2.43020162      24.58243212        1       1.00000000       0.00000000       0.00000000       0.00000000       0.00000000       0.00000000       0.00000000
H        0.00770962       1.62381416      26.80131189        0       1.00000000      -0.00020602       0.00005781      -0.00017258      -0.00027836      -0.00029574       0.00038463
H        2.79855464       1.62364813      26.80120501        0       1.00000000       0.00020266       0.00002170       0.00003908      -0.00017274       0.00036885      -0.00025678
H        0.00226258       4.85959765      29.01856515        0       1.00000000       0.00003680       0.00012804      -0.00003696       0.00013687      -0.00043125      -0.00018523
H        1.40331284       4.03407447      26.79932006        0       1.00000000      -0.00014181      -0.00016716       0.00006637       0.00042506       0.00014277      -0.00004191
H        2.80414615       4.85962466      29.01866923        0       1.00000000       0.00006518       0.00002447       0.00007034      -0.00008991       0.00003840      -0.00013356
H        4.20926425       4.05820968      26.78226918        0       1.00000000      -0.00016429       0.00025079       0.00011131      -0.00044517      -0.00006735      -0.00014759
H        4.20924131       2.43365845      29.01677770        0       1.00000000       0.00018305      -0.00017893      -0.00001116       0.00002644       0.00032146      -0.00029408
19
Lattice="5.612310241546866 0.0 0.0 0.0 4.860403243099165 0.0 0.0 0.0 44.58243212332868" Properties=species:S:1:pos:R:3:tags:I:1:masses:R:1:momenta:R:3:forces:R:3 KEmax=24.559391461069055 iter=100351 volume=1216.1236359717223 set_wall=T ns_energy=-12.535374886633042 last_walked_iter_clone=100339 energy=-12.535375005639468 stress="0.023723971601374256 8.597248986181852e-07 2.9021780833749804e-06 8.597248986181852e-07 0.023823553394249304 -5.102837541297776e-08 2.9021780833749804e-06 -5.102837541297776e-08 0.011532256555761889" pbc="T T F"
H        1.40307756       0.81006721      20.00000000        3       1.00000000       0.00000000       0.00000000       0.00000000       0.00000000       0.00000000       0.00000000
H        4.20923268       0.81006721      20.00000000        3       1.00000000       0.00000000       0.00000000       0.00000000       0.00000000       0.00000000       0.00000000
H        0.00000000       3.24026883      20.00000000        3       1.00000000       0.00000000       0.00000000       0.00000000       0.00000000       0.00000000       0.00000000
H        2.80615512       3.24026883      20.00000000        3       1.00000000       0.00000000       0.00000000       0.00000000       0.00000000       0.00000000       0.00000000
H        0.00000000       1.62013441      22.29121606        2       1.00000000       0.00000000       0.00000000       0.00000000       0.00000000       0.00000000       0.00000000
H        2.80615512       1.62013441      22.29121606        2       1.00000000       0.00000000       0.00000000       0.00000000       0.00000000       0.00000000       0.00000000
H        1.40307756       4.05033604      22.29121606        2       1.00000000       0.00000000       0.00000000       0.00000000       0.00000000       0.00000000       0.00000000
H        4.20923268       4.05033604      22.29121606        2       1.00000000       0.00000000       0.00000000       0.00000000       0.00000000       0.00000000       0.00000000
H        0.00000000       0.00000000      24.58243212        1       1.00000000       0.00000000       0.00000000       0.00000000       0.00000000       0.00000000       0.00000000
H        2.80615512       0.00000000      24.58243212        1       1.00000000       0.00000000       0.00000000       0.00000000       0.00000000       0.00000000       0.00000000
H        1.40307756       2.43020162      24.58243212        1       1.00000000       0.00000000       0.00000000       0.00000000       0.00000000       0.00000000       0.00000000
H        4.20923268       2.43020162      24.58243212        1       1.00000000       0.00000000       0.00000000       0.00000000       0.00000000       0.00000000       0.00000000
H        0.00753155       1.62403152      26.80123974        0       1.00000000      -0.00023154       0.00003897       0.00023951      -0.00027836      -0.00029574       0.00038463
H        2.79868434       1.62413789      26.80130476        0       1.00000000       0.00002985       0.00000005       0.00014105      -0.00017274       0.00036885      -0.00025678
H        0.00225432       4.86003446      29.01855891        0       1.00000000       0.00018294       0.00004300       0.00019857       0.00013687      -0.00043125      -0.00018523
H        1.40307939       4.03431260      26.79929695        0       1.00000000      -0.00007973       0.00027207      -0.00002059       0.00042506       0.00014277      -0.00004191
H        2.80407861       4.86003589      29.01875257        0       1.00000000      -0.00003153      -0.00008286       0.00026768      -0.00008991       0.00003840      -0.00013356
H        4.20931945       4.05840064      26.78234044        0       1.00000000      -0.00010742       0.00004654       0.00005664      -0.00044517      -0.00006735      -0.00014759
H        4.20936875       2.43397000      29.01680082        0       1.00000000      -0.00013764      -0.00007048      -0.00022745       0.00002644       0.00032146      -0.00029408
19
Lattice="5.612310241546866 0.0 0.0 0.0 4.860403243099165 0.0 0.0 0.0 44.58243212332868" Properties=species:S:1:pos:R:3:tags:I:1:masses:R:1:momenta:R:3:forces:R:3 KEmax=24.559391461069055 iter=100351 volume=1216.1236359717223 set_wall=T ns_energy=-12.535374876970673 last_walked_iter_clone=100010 energy=-12.535375005639468 stress="0.023723971601374256 8.597248986181852e-07 2.9021780833749804e-06 8.597248986181852e-07 0.023823553394249304 -5.102837541297776e-08 2.9021780833749804e-06 -5.102837541297776e-08 0.011532256555761889" pbc="T T F"
H        1.40307756       0.81006721      20.00000000        3       1.00000000       0.00000000       0.00000000       0.00000000       0.00000000       0.00000000       0.00000000
H        4.20923268       0.81006721      20.00000000        3       1.00000000       0.00000000       0.00000000       0.00000000       0.00000000       0.00000000       0.00000000
H        0.00000000       3.24026883      20.00000000        3       1.00000000       0.00000000       0.00000000       0.00000000       0.00000000       0.00000000       0.00000000
H        2.80615512       3.24026883      20.00000000        3       1.00000000       0.00000000       0.00000000       0.00000000       0.00000000       0.00000000       0.00000000
H        0.00000000       1.62013441      22.29121606        2       1.00000000       0.00000000       0.00000000       0.00000000       0.00000000       0.00000000       0.00000000
H        2.80615512       1.62013441      22.29121606        2       1.00000000       0.00000000       0.00000000       0.00000000       0.00000000       0.00000000       0.00000000
H        1.40307756       4.05033604      22.29121606        2       1.00000000       0.00000000       0.00000000       0.00000000       0.00000000       0.00000000       0.00000000
H        4.20923268       4.05033604      22.29121606        2       1.00000000       0.00000000       0.00000000       0.00000000       0.00000000       0.00000000       0.00000000
H        0.00000000       0.00000000      24.58243212        1       1.00000000       0.00000000       0.00000000       0.00000000       0.00000000       0.00000000       0.00000000
H        2.80615512       0.00000000      24.58243212        1       1.00000000       0.00000000       0.00000000       0.00000000       0.00000000       0.00000000       0.00000000
H        1.40307756       2.43020162      24.58243212        1       1.00000000       0.00000000       0.00000000       0.00000000       0.00000000       0.00000000       0.00000000
H        4.20923268       2.43020162      24.58243212        1       1.00000000       0.00000000       0.00000000       0.00000000       0.00000000       0.00000000       0.00000000
H        0.00773124       1.62387962      26.80132136        0       1.00000000       0.00000356      -0.00015032       0.00008838      -0.00027836      -0.00029574       0.00038463
H        2.79867997       1.62387465      26.80119532        0       1.00000000      -0.00018103      -0.00010450       0.00003711      -0.00017274       0.00036885      -0.00025678
H        0.00222488       4.85964947      29.01874561        0       1.00000000      -0.00015265       0.00014542      -0.00009410       0.00013687      -0.00043125      -0.00018523
H        1.40303616       4.03424127      26.79917525        0       1.00000000      -0.00000489       0.00010424      -0.00003128       0.00042506       0.00014277      -0.00004191
H        2.80417252       4.85974743      29.01846261        0       1.00000000       0.00007641      -0.00006278       0.00003161      -0.00008991       0.00003840      -0.00013356
H        4.20939669       4.05830488      26.78237260        0       1.00000000       0.00004531       0.00021159      -0.00026211      -0.00044517      -0.00006735      -0.00014759
H        4.20932007       2.43381386      29.01693866        0       1.00000000      -0.00014123       0.00016466      -0.00025838       0.00002644       0.00032146      -0.00029408
19
Lattice="5.612310241546866 0.0 0.0 0.0 4.860403243099165 0.0 0.0 0.0 44.58243212332868" Properties=species:S:1:pos:R:3:tags:I:1:masses:R:1:momenta:R:3:forces:R:3 KEmax=24.559391461069055 iter=100351 volume=1216.1236359717223 set_wall=T ns_energy=-12.535374884577632 last_walked_iter_clone=100329 energy=-12.535375005639468 stress="0.023723971601374256 8.597248986181852e-07 2.9021780833749804e-06 8.597248986181852e-07 0.023823553394249304 -5.102837541297776e-08 2.9021780833749804e-06 -5.102837541297776e-08 0.011532256555761889" pbc="T T F"
H        1.40307756       0.81006721      20.00000000        3       1.00000000       0.00000000       0.00000000       0.00000000       0.00000000       0.00000000       0.00000000
H        4.20923268       0.81006721      20.00000000        3       1.00000000       0.00000000       0.00000000       0.00000000       0.00000000       0.00000000       0.00000000
H        0.00000000       3.24026883      20.00000000        3       1.00000000       0.00000000       0.00000000       0.00000000       0.00000000       0.00000000       0.00000000
H        2.80615512       3.24026883      20.00000000        3       1.00000000       0.00000000       0.00000000       0.00000000       0.00000000       0.00000000       0.00000000
H        0.00000000       1.62013441      22.29121606        2       1.00000000       0.00000000       0.00000000       0.00000000       0.00000000       0.00000000       0.00000000
H        2.80615512       1.62013441      22.29121606        2       1.00000000       0.00000000       0.00000000       0.00000000       0.00000000       0.00000000       0.00000000
H        1.40307756       4.05033604      22.29121606        2       1.00000000       0.00000000       0.00000000       0.00000000       0.00000000       0.00000000       0.00000000
H        4.20923268       4.05033604      22.29121606        2       1.00000000       0.00000000       0.00000000       0.00000000       0.00000000       0.00000000       0.00000000
H        0.00000000       0.00000000      24.58243212        1       1.00000000       0.00000000       0.00000000       0.00000000       0.00000000       0.00000000       0.00000000
H        2.80615512       0.00000000      24.58243212        1       1.00000000       0.00000000       0.00000000       0.00000000       0.00000000       0.00000000       0.00000000
H        1.40307756       2.43020162      24.58243212        1       1.00000000       0.00000000       0.00000000       0.00000000       0.00000000       0.00000000       0.00000000
H        4.20923268       2.43020162      24.58243212        1       1.00000000       0.00000000       0.00000000       0.00000000       0.00000000       0.00000000       0.00000000
H        0.00757188       1.62386163      26.80140714        0       1.00000000       0.00020695      -0.00013806      -0.00003263      -0.00027836      -0.00029574       0.00038463
H        2.79851013       1.62392330      26.80126501        0       1.00000000      -0.00028282      -0.00004360       0.00011374      -0.00017274       0.00036885      -0.00025678
H        0.00198185       4.85974499      29.01871159        0       1.00000000       0.00007531      -0.00010149      -0.00010409       0.00013687      -0.00043125      -0.00018523
H        1.40308757       4.03411816      26.79925679        0       1.00000000      -0.00000073       0.00034415       0.00003622       0.00042506       0.00014277      -0.00004191
H        2.80388198       4.85982031      29.01850659        0       1.00000000      -0.00005155       0.00002441      -0.00002639      -0.00008991       0.00003840      -0.00013356
H        4.20908564       4.05830549      26.78224410        0       1.00000000       0.00011080       0.00009424       0.00020679      -0.00044517      -0.00006735      -0.00014759
H        4.20910132       2.43380388      29.01684838        0       1.00000000       0.00020885       0.00009763       0.00022279       0.00002644       0.00032146      -0.00029408
19
Lattice="5.612310241546866 0.0 0.0 0.0 4.860403243099165 0.0 0.0 0.0 44.58243212332868" Properties=species:S:1:pos:R:3:tags:I:1:masses:R:1:momenta:R:3:forces:R:3 KEmax=24.559391461069055 iter=100351 volume=1216.1236359717223 set_wall=T ns_energy=-12.535374881890693 last_walked_iter_clone=100207 energy=-12.535375005639468 stress="0.023723971601374256 8.597248986181852e-07 2.9021780833749804e-06 8.597248986181852e-07 0.023823553394249304 -5.102837541297776e-08 2.9021780833749804e-06 -5.102837541297776e-08 0.011532256555761889" pbc="T T F"
H        1.40307756       0.81006721      20.00000000        3       1.00000000       0.00000000       0.00000000       0.00000000       0.00000000       0.00000000       0.00000000
H        4.20923268       0.81006721      20.00000000        3       1.00000000       0.00000000       0.00000000       0.00000000       0.00000000       0.00000000       0.00000000
H        0.00000000       3.24026883      20.00000000        3       1.00000000       0.00000000       0.00000000       0.00000000       0.00000000       0.00000000       0.00000000
H        2.80615512       3.24026883      20.00000000        3       1.00000000       0.00000000       0.00000000       0.00000000       0.00000000       0.00000000       0.00000000
H        0.00000000       1.62013441      22.29121606        2       1.00000000       0.00000000       0.00000000       0.00000000       0.00000000       0.00000000       0.00000000
H        2.80615512       1.62013441      22.29121606        2       1.00000000       0.00000000       0.00000000       0.00000000       0.00000000       0.00000000       0.00000000
H        1.40307756       4.05033604      22.29121606        2       1.00000000       0.00000000       0.00000000       0.00000000       0.00000000       0.00000000       0.00000000