21
Lattice="5.612310241546866 0.0 0.0 0.0 4.860403243099165 0.0 0.0 0.0 24.582432123328676" Properties=species:S:1:pos:R:3:tags:I:1:masses:R:1:momenta:R:3:forces:R:3 KEmax=27.14459056223422 iter=90846 volume=670.5618179858607 ns_energy=-14.09023304547034 last_walked_iter_clone=90809 energy=-14.090233046358719 stress="0.009830749117921343 -1.4662536263281125e-08 2.714740851801367e-08 -1.4662536263281125e-08 0.009857991567009167 -4.0833564084229795e-09 2.714740851801367e-08 -4.0833564084229795e-09 0.0048701247176103" pbc="T T T"
H        1.40307756       0.81006721      10.00000000        3       1.00000000       0.00000000       0.00000000       0.00000000       0.00000000       0.00000000       0.00000000
H        4.20923268       0.81006721      10.00000000        3       1.00000000       0.00000000       0.00000000       0.00000000       0.00000000       0.00000000       0.00000000
H        0.00000000       3.24026883      10.00000000        3       1.00000000       0.00000000       0.00000000       0.00000000       0.00000000       0.00000000       0.00000000
H        2.80615512       3.24026883      10.00000000        3       1.00000000       0.00000000       0.00000000       0.00000000       0.00000000       0.00000000       0.00000000
H        0.00000000       1.62013441      12.29121606        2       1.00000000       0.00000000       0.00000000       0.00000000       0.00000000       0.00000000       0.00000000
H        2.80615512       1.62013441      12.29121606        2       1.00000000       0.00000000       0.00000000       0.00000000       0.00000000       0.00000000       0.00000000
H        1.40307756       4.05033604      12.29121606        2       1.00000000       0.00000000       0.00000000       0.00000000       0.00000000       0.00000000       0.00000000
H        4.20923268       4.05033604      12.29121606        2       1.00000000       0.00000000       0.00000000       0.00000000       0.00000000       0.00000000       0.00000000
H        0.00000000       0.00000000      14.58243212        1       1.00000000       0.00000000       0.00000000       0.00000000       0.00000000       0.00000000       0.00000000
H        2.80615512       0.00000000      14.58243212        1       1.00000000       0.00000000       0.00000000       0.00000000       0.00000000       0.00000000       0.00000000
H        1.40307756       2.43020162      14.58243212        1       1.00000000       0.00000000       0.00000000       0.00000000       0.00000000       0.00000000       0.00000000
H        4.20923268       2.43020162      14.58243212        1       1.00000000       0.00000000       0.00000000       0.00000000       0.00000000       0.00000000       0.00000000
H        0.00000109       0.00113121       5.56692637        0       1.00000000       0.00000595       0.00000708       0.00000987       0.00000328       0.00000157      -0.00000503
H        4.20922873       4.05033243      16.81105383        0       1.00000000      -0.00000018      -0.00000165      -0.00000690       0.00000062       0.00001183       0.00000091
H        0.00000446       1.63639186       7.78127284        0       1.00000000      -0.00000837      -0.00001056       0.00000857       0.00000038       0.00002345      -0.00000213
H        1.41038488       4.04602523       7.78599955        0       1.00000000       0.00000818      -0.00000429       0.00000870      -0.00000277      -0.00002649       0.00001124
H        2.80615906       1.61081289       7.75018095        0       1.00000000       0.00000716      -0.00000288      -0.00000288       0.00000780       0.00000644      -0.00000971
H        4.20193288       4.04602244       7.78600220        0       1.00000000      -0.00001184       0.00000346       0.00000964      -0.00000192      -0.00000385       0.00001594
H        1.40307695       4.05033271      16.81106708        0       1.00000000      -0.00000315      -0.00001369      -0.00000361       0.00001010       0.00000553      -0.00000052
H        5.61230957       1.62013641      16.81106415        0       1.00000000      -0.00000589       0.00000954      -0.00001556      -0.00001193      -0.00001500       0.00000021
H        2.80615279       1.62013529      16.81106402        0       1.00000000      -0.00000099      -0.00000806      -0.00000059       0.00000318       0.00000341       0.00000422
21
Lattice="5.612310241546866 0.0 0.0 0.0 4.860403243099165 0.0 0.0 0.0 24.582432123328676" Properties=species:S:1:pos:R:3:tags:I:1:masses:R:1:momenta:R:3:forces:R:3 KEmax=27.14459056223422 iter=90846 volume=670.5618179858607 ns_energy=-14.090233045482321 last_walked_iter_clone=90793 energy=-14.090233046358719 stress="0.009830749117921343 -1.4662536263281125e-08 2.714740851801367e-08 -1.4662536263281125e-08 0.009857991567009167 -4.0833564084229795e-09 2.714740851801367e-08 -4.0833564084229795e-09 0.0048701247176103" pbc="T T T"
H        1.40307756       0.81006721      10.00000000        3       1.00000000       0.00000000       0.00000000       0.00000000       0.00000000       0.00000000       0.00000000
H        4.20923268       0.81006721      10.00000000        3       1.00000000       0.00000000       0.00000000       0.00000000       0.00000000       0.00000000       0.00000000
H        0.00000000       3.24026883      10.00000000        3       1.00000000       0.00000000       0.00000000       0.00000000       0.00000000       0.00000000       0.00000000
H        2.80615512       3.24026883      10.00000000        3       1.00000000       0.00000000       0.00000000       0.00000000       0.00000000       0.00000000       0.00000000
H        0.00000000       1.62013441      12.29121606        2       1.00000000       0.00000000       0.00000000       0.00000000       0.00000000       0.00000000       0.00000000
H        2.80615512       1.62013441      12.29121606        2       1.00000000       0.00000000       0.00000000       0.00000000       0.00000000       0.00000000       0.00000000
H        1.40307756       4.05033604      12.29121606        2       1.00000000       0.00000000       0.00000000       0.00000000       0.00000000       0.00000000       0.00000000
H        4.20923268       4.05033604      12.29121606        2       1.00000000       0.00000000       0.00000000       0.00000000       0.00000000       0.00000000       0.00000000
H        0.00000000       0.00000000      14.58243212        1       1.00000000       0.00000000       0.00000000       0.00000000       0.00000000       0.00000000       0.00000000
H        2.80615512       0.00000000      14.58243212        1       1.00000000       0.00000000       0.00000000       0.00000000       0.00000000       0.00000000       0.00000000
H        1.40307756       2.43020162      14.58243212        1       1.00000000       0.00000000       0.00000000       0.00000000       0.00000000       0.00000000       0.00000000
H        4.20923268       2.43020162      14.58243212        1       1.00000000       0.00000000       0.00000000       0.00000000       0.00000000       0.00000000       0.00000000
H        5.61230829       0.00113872       5.56692628        0       1.00000000      -0.00000126       0.00000714      -0.00000303       0.00000328       0.00000157      -0.00000503
H        4.20923018       4.05033211      16.81106536        0       1.00000000      -0.00000447       0.00000418       0.00000431       0.00000062       0.00001183       0.00000091
H       -0.00000235       1.63639235       7.78127117        0       1.00000000       0.00000162      -0.00001636      -0.00000420       0.00000038       0.00002345      -0.00000213
H        1.41038375       4.04602237       7.78600581        0       1.00000000      -0.00000143      -0.00000964       0.00000982      -0.00000277      -0.00002649       0.00001124
H        2.80615392       1.61080750       7.75018785        0       1.00000000      -0.00000533       0.00000393       0.00000684       0.00000780       0.00000644      -0.00000971
H        4.20192580       4.04601834       7.78601027        0       1.00000000      -0.00001151       0.00000504      -0.00000801      -0.00000192      -0.00000385       0.00001594
H        1.40307963       4.05033319      16.81106420        0       1.00000000       0.00000446      -0.00000056      -0.00000520       0.00001010       0.00000553      -0.00000052
H        0.00000120       1.62012939      16.81106706        0       1.00000000      -0.00000711       0.00000147      -0.00000064      -0.00001193      -0.00001500       0.00000021
H        2.80615626       1.62012640      16.81107036        0       1.00000000       0.00000131      -0.00001016      -0.00000998       0.00000318       0.00000341       0.00000422
21
Lattice="5.612310241546866 0.0 0.0 0.0 4.860403243099165 0.0 0.0 0.0 24.582432123328676" Properties=species:S:1:pos:R:3:tags:I:1:masses:R:1:momenta:R:3:forces:R:3 KEmax=27.14459056223422 iter=90846 volume=670.5618179858607 ns_energy=-14.090233045480096 last_walked_iter_clone=90778 energy=-14.090233046358719 stress="0.009830749117921343 -1.4662536263281125e-08 2.714740851801367e-08 -1.4662536263281125e-08 0.009857991567009167 -4.0833564084229795e-09 2.714740851801367e-08 -4.0833564084229795e-09 0.0048701247176103" pbc="T T T"
H        1.40307756       0.81006721      10.00000000        3       1.00000000       0.00000000       0.00000000       0.00000000       0.00000000       0.00000000       0.00000000
H        4.20923268       0.81006721      10.00000000        3       1.00000000       0.00000000       0.00000000       0.00000000       0.00000000       0.00000000       0.00000000
H        0.00000000       3.24026883      10.00000000        3       1.00000000       0.00000000       0.00000000       0.00000000       0.00000000       0.00000000       0.00000000
H        2.80615512       3.24026883      10.00000000        3       1.00000000       0.00000000       0.00000000       0.00000000       0.00000000       0.00000000       0.00000000
H        0.00000000       1.62013441      12.29121606        2       1.00000000       0.00000000       0.00000000       0.00000000       0.00000000       0.00000000       0.00000000
H        2.80615512       1.62013441      12.29121606        2       1.00000000       0.00000000       0.00000000       0.00000000       0.00000000       0.00000000       0.00000000
H        1.40307756       4.05033604      12.29121606        2       1.00000000       0.00000000       0.00000000       0.00000000       0.00000000       0.00000000       0.00000000
H        4.20923268       4.05033604      12.29121606        2       1.00000000       0.00000000       0.00000000       0.00000000       0.00000000       0.00000000       0.00000000
H        0.00000000       0.00000000      14.58243212        1       1.00000000       0.00000000       0.00000000       0.00000000       0.00000000       0.00000000       0.00000000
H        2.80615512       0.00000000      14.58243212        1       1.00000000       0.00000000       0.00000000       0.00000000       0.00000000       0.00000000       0.00000000
H        1.40307756       2.43020162      14.58243212        1       1.00000000       0.00000000       0.00000000       0.00000000       0.00000000       0.00000000       0.00000000
H        4.20923268       2.43020162      14.58243212        1       1.00000000       0.00000000       0.00000000       0.00000000       0.00000000       0.00000000       0.00000000
H        5.61230335       0.00115219       5.56692132        0       1.00000000       0.00000252      -0.00000394      -0.00000090       0.00000328       0.00000157      -0.00000503
H        4.20922762       4.05032909      16.81107366        0       1.00000000      -0.00000265      -0.00000079      -0.00000438       0.00000062       0.00001183       0.00000091
H        5.61231263       1.63639601       7.78127671        0       1.00000000      -0.00001871      -0.00000165      -0.00000470       0.00000038       0.00002345      -0.00000213
H        1.41037734       4.04602060       7.78599131        0       1.00000000      -0.00000257      -0.00000792       0.00000480      -0.00000277      -0.00002649       0.00001124
H        2.80615402       1.61081810       7.75018382        0       1.00000000       0.00001151      -0.00000607       0.00000602       0.00000780       0.00000644      -0.00000971
H        4.20192356       4.04602801       7.78599265        0       1.00000000       0.00001186       0.00000008      -0.00000431      -0.00000192      -0.00000385       0.00001594
H        1.40308009       4.05033088      16.81105715        0       1.00000000       0.00000407      -0.00000779       0.00000195       0.00001010       0.00000553      -0.00000052
H        5.61230820       1.62013256      16.81106488        0       1.00000000       0.00000991       0.00000086       0.00000669      -0.00001193      -0.00001500       0.00000021
H        2.80615304       1.62012957      16.81106259        0       1.00000000       0.00000180      -0.00000338       0.00000451       0.00000318       0.00000341       0.00000422
21
Lattice="5.612310241546866 0.0 0.0 0.0 4.860403243099165 0.0 0.0 0.0 24.582432123328676" Properties=species:S:1:pos:R:3:tags:I:1:masses:R:1:momenta:R:3:forces:R:3 KEmax=27.14459056223422 iter=90846 volume=670.5618179858607 ns_energy=-14.090233045478223 last_walked_iter_clone=90776 energy=-14.090233046358719 stress="0.009830749117921343 -1.4662536263281125e-08 2.714740851801367e-08 -1.4662536263281125e-08 0.009857991567009167 -4.0833564084229795e-09 2.714740851801367e-08 -4.0833564084229795e-09 0.0048701247176103" pbc="T T T"
H        1.40307756       0.81006721      10.00000000        3       1.00000000       0.00000000       0.00000000       0.00000000       0.00000000       0.00000000       0.00000000
H        4.20923268       0.81006721      10.00000000        3       1.00000000       0.00000000       0.00000000       0.00000000       0.00000000       0.00000000       0.00000000
H        0.00000000       3.24026883      10.00000000        3       1.00000000       0.00000000       0.00000000       0.00000000       0.00000000       0.00000000       0.00000000
H        2.80615512       3.24026883      10.00000000        3       1.00000000       0.00000000       0.00000000       0.00000000       0.00000000       0.00000000       0.00000000
H        0.00000000       1.62013441      12.29121606        2       1.00000000       0.00000000       0.00000000       0.00000000       0.00000000       0.00000000       0.00000000
H        2.80615512       1.62013441      12.29121606        2       1.00000000       0.00000000       0.00000000       0.00000000       0.00000000       0.00000000       0.00000000
H        1.40307756       4.05033604      12.29121606        2       1.00000000       0.00000000       0.00000000       0.00000000       0.00000000       0.00000000       0.00000000
H        4.20923268       4.05033604      12.29121606        2       1.00000000       0.00000000       0.00000000       0.00000000       0.00000000       0.00000000       0.00000000
H        0.00000000       0.00000000      14.58243212        1       1.00000000       0.00000000       0.00000000       0.00000000       0.00000000       0.00000000       0.00000000
H        2.80615512       0.00000000      14.58243212        1       1.00000000       0.00000000       0.00000000       0.00000000       0.00000000       0.00000000       0.00000000
H        1.40307756       2.43020162      14.58243212        1       1.00000000       0.00000000       0.00000000       0.00000000       0.00000000       0.00000000       0.00000000
H        4.20923268       2.43020162      14.58243212        1       1.00000000       0.00000000       0.00000000       0.00000000       0.00000000       0.00000000       0.00000000
H        0.00000958       0.00112229       5.56691634        0       1.00000000      -0.00000368      -0.00002183      -0.00000301       0.00000328       0.00000157      -0.00000503
H        4.20923901       4.05033522      16.81106562        0       1.00000000       0.00000883      -0.00000160      -0.00000326       0.00000062       0.00001183       0.00000091
H        5.61231070       1.63639040       7.78127096        0       1.00000000       0.00000705       0.00001138       0.00000170       0.00000038       0.00002345      -0.00000213
H        1.41038277       4.04602323       7.78600031        0       1.00000000       0.00000320       0.00000242       0.00000121      -0.00000277      -0.00002649       0.00001124
H        2.80614959       1.61081063       7.75019467        0       1.00000000      -0.00000541      -0.00000632       0.00000197       0.00000780       0.00000644      -0.00000971
H        4.20193066       4.04602215       7.78599681        0       1.00000000       0.00000728      -0.00000674       0.00001137      -0.00000192      -0.00000385       0.00001594
H        1.40308100       4.05033354      16.81106884        0       1.00000000       0.00001453      -0.00000269       0.00000449       0.00001010       0.00000553      -0.00000052
H        5.61231445       1.62012842      16.81107091        0       1.00000000       0.00001323       0.00000250       0.00000100      -0.00001193      -0.00001500       0.00000021
H        2.80616037       1.62012785      16.81105943        0       1.00000000      -0.00000293      -0.00000152       0.00000586       0.00000318       0.00000341       0.00000422
21
Lattice="5.612310241546866 0.0 0.0 0.0 4.860403243099165 0.0 0.0 0.0 24.582432123328676" Properties=species:S:1:pos:R:3:tags:I:1:masses:R:1:momenta:R:3:forces:R:3 KEmax=27.14459056223422 iter=90846 volume=670.5618179858607 ns_energy=-14.090233045472734 last_walked_iter_clone=90537 energy=-14.090233046358719 stress="0.009830749117921343 -1.4662536263281125e-08 2.714740851801367e-08 -1.4662536263281125e-08 0.009857991567009167 -4.0833564084229795e-09 2.714740851801367e-08 -4.0833564084229795e-09 0.0048701247176103" pbc="T T T"
H        1.40307756       0.81006721      10.00000000        3       1.00000000       0.00000000       0.00000000       0.00000000       0.00000000       0.00000000       0.00000000
H        4.20923268       0.81006721      10.00000000        3       1.00000000       0.00000000       0.00000000       0.00000000       0.00000000       0.00000000       0.00000000
H        0.00000000       3.24026883      10.00000000        3       1.00000000       0.00000000       0.00000000       0.00000000       0.00000000       0.00000000       0.00000000
H        2.80615512       3.24026883      10.00000000        3       1.00000000       0.00000000       0.00000000       0.00000000       0.00000000       0.00000000       0.00000000
H        0.00000000       1.62013441      12.29121606        2       1.00000000       0.00000000       0.00000000       0.00000000       0.00000000       0.00000000       0.00000000
H        2.80615512       1.62013441      12.29121606        2       1.00000000       0.00000000       0.00000000       0.00000000       0.00000000       0.00000000       0.00000000
H        1.40307756       4.05033604      12.29121606        2       1.00000000       0.00000000       0.00000000       0.00000000       0.00000000       0.00000000       0.00000000
H        4.20923268       4.05033604      12.29121606        2       1.00000000       0.00000000       0.00000000       0.00000000       0.00000000       0.00000000       0.00000000
H        0.00000000       0.00000000      14.58243212        1       1.00000000       0.00000000       0.00000000       0.00000000       0.00000000       0.00000000       0.00000000
H        2.80615512       0.00000000      14.58243212        1       1.00000000       0.00000000       0.00000000       0.00000000       0.00000000       0.00000000       0.00000000
H        1.40307756       2.43020162      14.58243212        1       1.00000000       0.00000000       0.00000000       0.00000000       0.00000000       0.00000000       0.00000000
H        4.20923268       2.43020162      14.58243212        1       1.00000000       0.00000000       0.00000000       0.00000000       0.00000000       0.00000000       0.00000000
H        5.61230639       0.00113671       5.56692673        0       1.00000000       0.00000650       0.00000127       0.00000241       0.00000328       0.00000157      -0.00000503
H        4.20923643       4.05034310      16.81105633        0       1.00000000      -0.00000131       0.00000805      -0.00000733       0.00000062       0.00001183       0.00000091
H       -0.00000264       1.63638637       7.78127293        0       1.00000000       0.00000028       0.00000573      -0.00000737       0.00000038       0.00002345      -0.00000213
H        1.41037690       4.04602056       7.78600249        0       1.00000000      -0.00000677      -0.00000977      -0.00000195      -0.00000277      -0.00002649       0.00001124
H        2.80614512       1.61080371       7.75019614        0       1.00000000      -0.00000493       0.00000427      -0.00000857       0.00000780       0.00000644      -0.00000971
H        4.20192508       4.04601600       7.78600228        0       1.00000000       0.00000669      -0.00000216      -0.00000877      -0.00000192      -0.00000385       0.00001594
H        1.40308105       4.05034664      16.81106917        0       1.00000000       0.00000045      -0.00000475       0.00000013       0.00001010       0.00000553      -0.00000052
H        0.00000499       1.62013744      16.81105668        0       1.00000000       0.00000207       0.00000639      -0.00001439      -0.00001193      -0.00001500       0.00000021
H        2.80616209       1.62014070      16.81106143        0       1.00000000      -0.00000195      -0.00001122       0.00000690       0.00000318       0.00000341       0.00000422
21
Lattice="5.612310241546866 0.0 0.0 0.0 4.860403243099165 0.0 0.0 0.0 24.582432123328676" Properties=species:S:1:pos:R:3:tags:I:1:masses:R:1:momenta:R:3:forces:R:3 KEmax=27.14459056223422 iter=90846 volume=670.5618179858607 ns_energy=-14.090233045460439 last_walked_iter_clone=90636 energy=-14.090233046358719 stress="0.009830749117921343 -1.4662536263281125e-08 2.714740851801367e-08 -1.4662536263281125e-08 0.009857991567009167 -4.0833564084229795e-09 2.714740851801367e-08 -4.0833564084229795e-09 0.0048701247176103" pbc="T T T"
H        1.40307756       0.81006721      10.00000000        3       1.00000000       0.00000000       0.00000000       0.00000000       0.00000000       0.00000000       0.00000000
H        4.20923268       0.81006721      10.00000000        3       1.00000000       0.00000000       0.00000000       0.00000000       0.00000000       0.00000000       0.00000000
H        0.00000000       3.24026883      10.00000000        3       1.00000000       0.00000000       0.00000000       0.00000000       0.00000000       0.00000000       0.00000000
H        2.80615512       3.24026883      10.00000000        3       1.00000000       0.00000000       0.00000000       0.00000000       0.00000000       0.00000000       0.00000000
H        0.00000000       1.62013441      12.29121606        2       1.00000000       0.00000000       0.00000000       0.00000000       0.00000000       0.00000000       0.00000000
H        2.80615512       1.62013441      12.29121606        2       1.00000000       0.00000000       0.00000000       0.00000000       0.00000000       0.00000000       0.00000000
H        1.40307756       4.05033604      12.29121606        2       1.00000000       0.00000000       0.00000000       0.00000000       0.00000000       0.00000000       0.00000000
H        4.20923268       4.05033604      12.29121606        2       1.00000000       0.00000000       0.00000000       0.00000000       0.00000000       0.00000000       0.00000000
H        0.00000000       0.00000000      14.58243212        1       1.00000000       0.00000000       0.00000000       0.00000000       0.00000000       0.00000000       0.00000000
H        2.80615512       0.00000000      14.58243212        1       1.00000000       0.00000000       0.00000000       0.00000000       0.00000000       0.00000000       0.00000000
H        1.40307756       2.43020162      14.58243212        1       1.00000000       0.00000000       0.00000000       0.00000000       0.00000000       0.00000000       0.00000000
H        4.20923268       2.43020162      14.58243212        1       1.00000000       0.00000000       0.00000000       0.00000000       0.00000000       0.00000000       0.00000000
H        0.00000335       0.00114836       5.56691344        0       1.00000000       0.00001075       0.00000677      -0.00000531       0.00000328       0.00000157      -0.00000503
H        4.20922709       4.05033913      16.81106276        0       1.00000000      -0.00000766      -0.00000452      -0.00000745       0.00000062       0.00001183       0.00000091
H        0.00000120       1.63639000       7.78127161        0       1.00000000       0.00000852       0.00000935      -0.00000321       0.00000038       0.00002345      -0.00000213
H        1.41038692       4.04602398       7.78600315        0       1.00000000       0.00000242      -0.00000714       0.00000462      -0.00000277      -0.00002649       0.00001124
H        2.80615455       1.61080912       7.75019085        0       1.00000000      -0.00000791       0.00001340       0.00000597       0.00000780       0.00000644      -0.00000971
H        4.20193363       4.04602476       7.78599302        0       1.00000000       0.00001191      -0.00000046       0.00000860      -0.00000192      -0.00000385       0.00001594
H        1.40307218       4.05033208      16.81106878        0       1.00000000       0.00000864       0.00000057       0.00000826       0.00001010       0.00000553      -0.00000052
H        5.61230775       1.62013484      16.81106876        0       1.00000000      -0.00000300       0.00000766      -0.00000817      -0.00001193      -0.00001500       0.00000021
H        2.80614853       1.62012995      16.81106335        0       1.00000000      -0.00000755      -0.00000840      -0.00000380       0.00000318       0.00000341       0.00000422
21
Lattice="5.612310241546866 0.0 0.0 0.0 4.860403243099165 0.0 0.0 0.0 24.582432123328676" Properties=species:S:1:pos:R:3:tags:I:1:masses:R:1:momenta:R:3:forces:R:3 KEmax=27.14459056223422 iter=90846 volume=670.5618179858607 ns_energy=-14.090233045518158 last_walked_iter_clone=90726 energy=-14.090233046358719 stress="0.009830749117921343 -1.4662536263281125e-08 2.714740851801367e-08 -1.4662536263281125e-08 0.009857991567009167 -4.0833564084229795e-09 2.714740851801367e-08 -4.0833564084229795e-09 0.0048701247176103" pbc="T T T"
H        1.40307756       0.81006721      10.00000000        3       1.00000000       0.00000000       0.00000000       0.00000000       0.00000000       0.00000000       0.00000000
H        4.20923268       0.81006721      10.00000000        3       1.00000000       0.00000000       0.00000000       0.00000000       0.00000000       0.00000000       0.00000000
H        0.00000000       3.24026883      10.00000000        3       1.00000000       0.00000000       0.00000000       0.00000000       0.00000000       0.00000000       0.00000000
H        2.80615512       3.24026883      10.00000000        3       1.00000000       0.00000000       0.00000000       0.00000000       0.00000000       0.00000000       0.00000000
H        0.00000000       1.62013441      12.29121606        2       1.00000000       0.00000000       0.00000000       0.00000000       0.00000000       0.00000000       0.00000000
H        2.80615512       1.62013441      12.29121606        2       1.00000000       0.00000000       0.00000000       0.00000000       0.00000000       0.00000000       0.00000000
H        1.40307756       4.05033604      12.29121606        2       1.00000000       0.00000000       0.00000000       0.00000000       0.00000000       0.00000000       0.00000000
H        4.20923268       4.05033604      12.29121606        2       1.00000000       0.00000000       0.00000000       0.00000000       0.00000000       0.00000000       0.00000000
H        0.00000000       0.00000000      14.58243212        1       1.00000000       0.00000000       0.00000000       0.00000000       0.00000000       0.00000000       0.00000000
H        2.80615512       0.00000000      14.58243212        1       1.00000000       0.00000000       0.00000000       0.00000000       0.00000000       0.00000000       0.00000000
H        1.40307756       2.43020162      14.58243212        1       1.00000000       0.00000000       0.00000000       0.00000000       0.00000000       0.00000000       0.00000000
H        4.20923268       2.43020162      14.58243212        1       1.00000000       0.00000000       0.00000000       0.00000000       0.00000000       0.00000000       0.00000000
H        5.61230218       0.00114758       5.56692231        0       1.00000000       0.00001001       0.00000136       0.00000410       0.00000328       0.00000157      -0.00000503
H        4.20922650       4.05034105      16.81106080        0       1.00000000       0.00000300       0.00000628       0.00000927       0.00000062       0.00001183       0.00000091
H        5.61231599       1.63638984       7.78127661        0       1.00000000      -0.00001687       0.00000193      -0.00000375       0.00000038       0.00002345      -0.00000213
H        1.41038427       4.04602460       7.78599165        0       1.00000000      -0.00000224      -0.00000577       0.00000119      -0.00000277      -0.00002649       0.00001124
H        2.80615803       1.61081016       7.75018481        0       1.00000000       0.00000862      -0.00000003       0.00000168       0.00000780       0.00000644      -0.00000971
H        4.20192744       4.04601197       7.78599929        0       1.00000000      -0.00000265      -0.00000913      -0.00000106      -0.00000192      -0.00000385       0.00001594