21
Lattice="5.612310241546866 0.0 0.0 0.0 4.860403243099165 0.0 0.0 0.0 24.582432123328676" Properties=species:S:1:pos:R:3:tags:I:1:masses:R:1:momenta:R:3:forces:R:3 KEmax=27.14459056223422 iter=119999 volume=670.5618179858607 ns_energy=-14.090233046675936 last_walked_iter_clone=119514 energy=-14.090233046684036 stress="0.009830752537563811 2.1387460342002612e-09 -3.6639053672507923e-09 2.1387460342002612e-09 0.009857993648560472 -3.0317166524734273e-09 -3.6639053672507923e-09 -3.0317166524734273e-09 0.0048701471576586145" pbc="T T T"
H        1.40307756       0.81006721      10.00000000        3       1.00000000       0.00000000       0.00000000       0.00000000       0.00000000       0.00000000       0.00000000
H        4.20923268       0.81006721      10.00000000        3       1.00000000       0.00000000       0.00000000       0.00000000       0.00000000       0.00000000       0.00000000
H        0.00000000       3.24026883      10.00000000        3       1.00000000       0.00000000       0.00000000       0.00000000       0.00000000       0.00000000       0.00000000
H        2.80615512       3.24026883      10.00000000        3       1.00000000       0.00000000       0.00000000       0.00000000       0.00000000       0.00000000       0.00000000
H        0.00000000       1.62013441      12.29121606        2       1.00000000       0.00000000       0.00000000       0.00000000       0.00000000       0.00000000       0.00000000
H        2.80615512       1.62013441      12.29121606        2       1.00000000       0.00000000       0.00000000       0.00000000       0.00000000       0.00000000       0.00000000
H        1.40307756       4.05033604      12.29121606        2       1.00000000       0.00000000       0.00000000       0.00000000       0.00000000       0.00000000       0.00000000
H        4.20923268       4.05033604      12.29121606        2       1.00000000       0.00000000       0.00000000       0.00000000       0.00000000       0.00000000       0.00000000
H        0.00000000       0.00000000      14.58243212        1       1.00000000       0.00000000       0.00000000       0.00000000       0.00000000       0.00000000       0.00000000
H        2.80615512       0.00000000      14.58243212        1       1.00000000       0.00000000       0.00000000       0.00000000       0.00000000       0.00000000       0.00000000
H        1.40307756       2.43020162      14.58243212        1       1.00000000       0.00000000       0.00000000       0.00000000       0.00000000       0.00000000       0.00000000
H        4.20923268       2.43020162      14.58243212        1       1.00000000       0.00000000       0.00000000       0.00000000       0.00000000       0.00000000       0.00000000
H        5.61231029       0.00113933       5.56692255        0       1.00000000      -0.00000004      -0.00000125      -0.00000047      -0.00000015      -0.00000014       0.00000190
H        4.20923231       4.05033562      16.81106458        0       1.00000000       0.00000019       0.00000112       0.00000010      -0.00000046       0.00000063      -0.00000009
H        0.00000050       1.63638933       7.78127537        0       1.00000000       0.00000065      -0.00000084      -0.00000018       0.00000356      -0.00000085      -0.00000115
H        1.41038327       4.04602152       7.78599808        0       1.00000000      -0.00000114       0.00000111      -0.00000080      -0.00000026      -0.00000179      -0.00000200
H        2.80615561       1.61080900       7.75018949        0       1.00000000      -0.00000011      -0.00000024       0.00000024      -0.00000320      -0.00000159       0.00000211
H        4.20192896       4.04602104       7.78599825        0       1.00000000       0.00000135      -0.00000111      -0.00000212      -0.00000142       0.00000254       0.00000055
H        1.40307719       4.05033576      16.81106529        0       1.00000000      -0.00000002       0.00000061      -0.00000002       0.00000192      -0.00000122      -0.00000198
H       -0.00000066       1.62013440      16.81106488        0       1.00000000      -0.00000100      -0.00000153      -0.00000083      -0.00000325       0.00000036       0.00000017
H        2.80615428       1.62013397      16.81106497        0       1.00000000      -0.00000152       0.00000091       0.00000001       0.00000124       0.00000090      -0.00000182
21
Lattice="5.612310241546866 0.0 0.0 0.0 4.860403243099165 0.0 0.0 0.0 24.582432123328676" Properties=species:S:1:pos:R:3:tags:I:1:masses:R:1:momenta:R:3:forces:R:3 KEmax=27.14459056223422 iter=119999 volume=670.5618179858607 ns_energy=-14.090233046675143 last_walked_iter_clone=119917 energy=-14.090233046684036 stress="0.009830752537563811 2.1387460342002612e-09 -3.6639053672507923e-09 2.1387460342002612e-09 0.009857993648560472 -3.0317166524734273e-09 -3.6639053672507923e-09 -3.0317166524734273e-09 0.0048701471576586145" pbc="T T T"
H        1.40307756       0.81006721      10.00000000        3       1.00000000       0.00000000       0.00000000       0.00000000       0.00000000       0.00000000       0.00000000
H        4.20923268       0.81006721      10.00000000        3       1.00000000       0.00000000       0.00000000       0.00000000       0.00000000       0.00000000       0.00000000
H        0.00000000       3.24026883      10.00000000        3       1.00000000       0.00000000       0.00000000       0.00000000       0.00000000       0.00000000       0.00000000
H        2.80615512       3.24026883      10.00000000        3       1.00000000       0.00000000       0.00000000       0.00000000       0.00000000       0.00000000       0.00000000
H        0.00000000       1.62013441      12.29121606        2       1.00000000       0.00000000       0.00000000       0.00000000       0.00000000       0.00000000       0.00000000
H        2.80615512       1.62013441      12.29121606        2       1.00000000       0.00000000       0.00000000       0.00000000       0.00000000       0.00000000       0.00000000
H        1.40307756       4.05033604      12.29121606        2       1.00000000       0.00000000       0.00000000       0.00000000       0.00000000       0.00000000       0.00000000
H        4.20923268       4.05033604      12.29121606        2       1.00000000       0.00000000       0.00000000       0.00000000       0.00000000       0.00000000       0.00000000
H        0.00000000       0.00000000      14.58243212        1       1.00000000       0.00000000       0.00000000       0.00000000       0.00000000       0.00000000       0.00000000
H        2.80615512       0.00000000      14.58243212        1       1.00000000       0.00000000       0.00000000       0.00000000       0.00000000       0.00000000       0.00000000
H        1.40307756       2.43020162      14.58243212        1       1.00000000       0.00000000       0.00000000       0.00000000       0.00000000       0.00000000       0.00000000
H        4.20923268       2.43020162      14.58243212        1       1.00000000       0.00000000       0.00000000       0.00000000       0.00000000       0.00000000       0.00000000
H        5.61230863       0.00113886       5.56692291        0       1.00000000       0.00000038       0.00000112      -0.00000174      -0.00000015      -0.00000014       0.00000190
H        4.20923208       4.05033568      16.81106630        0       1.00000000       0.00000177      -0.00000121       0.00000043      -0.00000046       0.00000063      -0.00000009
H       -0.00000073       1.63638977       7.78127523        0       1.00000000       0.00000044       0.00000097      -0.00000061       0.00000356      -0.00000085      -0.00000115
H        1.41038147       4.04602205       7.78599806        0       1.00000000       0.00000034      -0.00000020       0.00000086      -0.00000026      -0.00000179      -0.00000200
H        2.80615445       1.61080982       7.75018932        0       1.00000000       0.00000105       0.00000107      -0.00000001      -0.00000320      -0.00000159       0.00000211
H        4.20192831       4.04602088       7.78599764        0       1.00000000      -0.00000007      -0.00000113       0.00000088      -0.00000142       0.00000254       0.00000055
H        1.40307762       4.05033533      16.81106540        0       1.00000000       0.00000060       0.00000002       0.00000163       0.00000192      -0.00000122      -0.00000198
H       -0.00000093       1.62013491      16.81106448        0       1.00000000       0.00000098      -0.00000021       0.00000035      -0.00000325       0.00000036       0.00000017
H        2.80615455       1.62013416      16.81106485        0       1.00000000      -0.00000082       0.00000088      -0.00000095       0.00000124       0.00000090      -0.00000182
21
Lattice="5.612310241546866 0.0 0.0 0.0 4.860403243099165 0.0 0.0 0.0 24.582432123328676" Properties=species:S:1:pos:R:3:tags:I:1:masses:R:1:momenta:R:3:forces:R:3 KEmax=27.14459056223422 iter=119999 volume=670.5618179858607 ns_energy=-14.090233046675309 last_walked_iter_clone=119639 energy=-14.090233046684036 stress="0.009830752537563811 2.1387460342002612e-09 -3.6639053672507923e-09 2.1387460342002612e-09 0.009857993648560472 -3.0317166524734273e-09 -3.6639053672507923e-09 -3.0317166524734273e-09 0.0048701471576586145" pbc="T T T"
H        1.40307756       0.81006721      10.00000000        3       1.00000000       0.00000000       0.00000000       0.00000000       0.00000000       0.00000000       0.00000000
H        4.20923268       0.81006721      10.00000000        3       1.00000000       0.00000000       0.00000000       0.00000000       0.00000000       0.00000000       0.00000000
H        0.00000000       3.24026883      10.00000000        3       1.00000000       0.00000000       0.00000000       0.00000000       0.00000000       0.00000000       0.00000000
H        2.80615512       3.24026883      10.00000000        3       1.00000000       0.00000000       0.00000000       0.00000000       0.00000000       0.00000000       0.00000000
H        0.00000000       1.62013441      12.29121606        2       1.00000000       0.00000000       0.00000000       0.00000000       0.00000000       0.00000000       0.00000000
H        2.80615512       1.62013441      12.29121606        2       1.00000000       0.00000000       0.00000000       0.00000000       0.00000000       0.00000000       0.00000000
H        1.40307756       4.05033604      12.29121606        2       1.00000000       0.00000000       0.00000000       0.00000000       0.00000000       0.00000000       0.00000000
H        4.20923268       4.05033604      12.29121606        2       1.00000000       0.00000000       0.00000000       0.00000000       0.00000000       0.00000000       0.00000000
H        0.00000000       0.00000000      14.58243212        1       1.00000000       0.00000000       0.00000000       0.00000000       0.00000000       0.00000000       0.00000000
H        2.80615512       0.00000000      14.58243212        1       1.00000000       0.00000000       0.00000000       0.00000000       0.00000000       0.00000000       0.00000000
H        1.40307756       2.43020162      14.58243212        1       1.00000000       0.00000000       0.00000000       0.00000000       0.00000000       0.00000000       0.00000000
H        4.20923268       2.43020162      14.58243212        1       1.00000000       0.00000000       0.00000000       0.00000000       0.00000000       0.00000000       0.00000000
H        0.00000200       0.00114204       5.56692298        0       1.00000000      -0.00000125       0.00000131       0.00000066      -0.00000015      -0.00000014       0.00000190
H        4.20923280       4.05033562      16.81106531        0       1.00000000      -0.00000105       0.00000059       0.00000084      -0.00000046       0.00000063      -0.00000009
H        5.61231127       1.63639159       7.78127414        0       1.00000000       0.00000089      -0.00000043      -0.00000101       0.00000356      -0.00000085      -0.00000115
H        1.41038174       4.04602262       7.78599737        0       1.00000000      -0.00000023       0.00000049      -0.00000004      -0.00000026      -0.00000179      -0.00000200
H        2.80615577       1.61080991       7.75018865        0       1.00000000       0.00000052      -0.00000088      -0.00000095      -0.00000320      -0.00000159       0.00000211
H        4.20192951       4.04602285       7.78599706        0       1.00000000      -0.00000011      -0.00000240      -0.00000047      -0.00000142       0.00000254       0.00000055
H        1.40307780       4.05033580      16.81106487        0       1.00000000       0.00000037       0.00000009       0.00000079       0.00000192      -0.00000122      -0.00000198
H        0.00000032       1.62013438      16.81106462        0       1.00000000       0.00000116       0.00000088      -0.00000002      -0.00000325       0.00000036       0.00000017
H        2.80615517       1.62013351      16.81106443        0       1.00000000      -0.00000037       0.00000119       0.00000056       0.00000124       0.00000090      -0.00000182
21
Lattice="5.612310241546866 0.0 0.0 0.0 4.860403243099165 0.0 0.0 0.0 24.582432123328676" Properties=species:S:1:pos:R:3:tags:I:1:masses:R:1:momenta:R:3:forces:R:3 KEmax=27.14459056223422 iter=119999 volume=670.5618179858607 ns_energy=-14.090233046675147 last_walked_iter_clone=119993 energy=-14.090233046684036 stress="0.009830752537563811 2.1387460342002612e-09 -3.6639053672507923e-09 2.1387460342002612e-09 0.009857993648560472 -3.0317166524734273e-09 -3.6639053672507923e-09 -3.0317166524734273e-09 0.0048701471576586145" pbc="T T T"
H        1.40307756       0.81006721      10.00000000        3       1.00000000       0.00000000       0.00000000       0.00000000       0.00000000       0.00000000       0.00000000
H        4.20923268       0.81006721      10.00000000        3       1.00000000       0.00000000       0.00000000       0.00000000       0.00000000       0.00000000       0.00000000
H        0.00000000       3.24026883      10.00000000        3       1.00000000       0.00000000       0.00000000       0.00000000       0.00000000       0.00000000       0.00000000
H        2.80615512       3.24026883      10.00000000        3       1.00000000       0.00000000       0.00000000       0.00000000       0.00000000       0.00000000       0.00000000
H        0.00000000       1.62013441      12.29121606        2       1.00000000       0.00000000       0.00000000       0.00000000       0.00000000       0.00000000       0.00000000
H        2.80615512       1.62013441      12.29121606        2       1.00000000       0.00000000       0.00000000       0.00000000       0.00000000       0.00000000       0.00000000
H        1.40307756       4.05033604      12.29121606        2       1.00000000       0.00000000       0.00000000       0.00000000       0.00000000       0.00000000       0.00000000
H        4.20923268       4.05033604      12.29121606        2       1.00000000       0.00000000       0.00000000       0.00000000       0.00000000       0.00000000       0.00000000
H        0.00000000       0.00000000      14.58243212        1       1.00000000       0.00000000       0.00000000       0.00000000       0.00000000       0.00000000       0.00000000
H        2.80615512       0.00000000      14.58243212        1       1.00000000       0.00000000       0.00000000       0.00000000       0.00000000       0.00000000       0.00000000
H        1.40307756       2.43020162      14.58243212        1       1.00000000       0.00000000       0.00000000       0.00000000       0.00000000       0.00000000       0.00000000
H        4.20923268       2.43020162      14.58243212        1       1.00000000       0.00000000       0.00000000       0.00000000       0.00000000       0.00000000       0.00000000
H        5.61231189       0.00113658       5.56692193        0       1.00000000       0.00000032       0.00000095       0.00000005      -0.00000015      -0.00000014       0.00000190
H        4.20923236       4.05033717      16.81106600        0       1.00000000       0.00000061       0.00000104      -0.00000037      -0.00000046       0.00000063      -0.00000009
H        5.61230972       1.63638936       7.78127461        0       1.00000000       0.00000061      -0.00000085      -0.00000086       0.00000356      -0.00000085      -0.00000115
H        1.41038131       4.04602078       7.78599812        0       1.00000000       0.00000208      -0.00000018      -0.00000020      -0.00000026      -0.00000179      -0.00000200
H        2.80615442       1.61080943       7.75018860        0       1.00000000       0.00000089       0.00000125      -0.00000041      -0.00000320      -0.00000159       0.00000211
H        4.20192905       4.04602217       7.78599815        0       1.00000000       0.00000039      -0.00000235      -0.00000021      -0.00000142       0.00000254       0.00000055
H        1.40307753       4.05033629      16.81106480        0       1.00000000       0.00000056       0.00000041      -0.00000097       0.00000192      -0.00000122      -0.00000198
H       -0.00000018       1.62013504      16.81106391        0       1.00000000      -0.00000070      -0.00000064       0.00000070      -0.00000325       0.00000036       0.00000017
H        2.80615499       1.62013444      16.81106459        0       1.00000000      -0.00000068      -0.00000048      -0.00000092       0.00000124       0.00000090      -0.00000182
21
Lattice="5.612310241546866 0.0 0.0 0.0 4.860403243099165 0.0 0.0 0.0 24.582432123328676" Properties=species:S:1:pos:R:3:tags:I:1:masses:R:1:momenta:R:3:forces:R:3 KEmax=27.14459056223422 iter=119999 volume=670.5618179858607 ns_energy=-14.090233046675463 last_walked_iter_clone=119980 energy=-14.090233046684036 stress="0.009830752537563811 2.1387460342002612e-09 -3.6639053672507923e-09 2.1387460342002612e-09 0.009857993648560472 -3.0317166524734273e-09 -3.6639053672507923e-09 -3.0317166524734273e-09 0.0048701471576586145" pbc="T T T"
H        1.40307756       0.81006721      10.00000000        3       1.00000000       0.00000000       0.00000000       0.00000000       0.00000000       0.00000000       0.00000000
H        4.20923268       0.81006721      10.00000000        3       1.00000000       0.00000000       0.00000000       0.00000000       0.00000000       0.00000000       0.00000000
H        0.00000000       3.24026883      10.00000000        3       1.00000000       0.00000000       0.00000000       0.00000000       0.00000000       0.00000000       0.00000000
H        2.80615512       3.24026883      10.00000000        3       1.00000000       0.00000000       0.00000000       0.00000000       0.00000000       0.00000000       0.00000000
H        0.00000000       1.62013441      12.29121606        2       1.00000000       0.00000000       0.00000000       0.00000000       0.00000000       0.00000000       0.00000000
H        2.80615512       1.62013441      12.29121606        2       1.00000000       0.00000000       0.00000000       0.00000000       0.00000000       0.00000000       0.00000000
H        1.40307756       4.05033604      12.29121606        2       1.00000000       0.00000000       0.00000000       0.00000000       0.00000000       0.00000000       0.00000000
H        4.20923268       4.05033604      12.29121606        2       1.00000000       0.00000000       0.00000000       0.00000000       0.00000000       0.00000000       0.00000000
H        0.00000000       0.00000000      14.58243212        1       1.00000000       0.00000000       0.00000000       0.00000000       0.00000000       0.00000000       0.00000000
H        2.80615512       0.00000000      14.58243212        1       1.00000000       0.00000000       0.00000000       0.00000000       0.00000000       0.00000000       0.00000000
H        1.40307756       2.43020162      14.58243212        1       1.00000000       0.00000000       0.00000000       0.00000000       0.00000000       0.00000000       0.00000000
H        4.20923268       2.43020162      14.58243212        1       1.00000000       0.00000000       0.00000000       0.00000000       0.00000000       0.00000000       0.00000000
H        5.61231018       0.00114013       5.56692382        0       1.00000000       0.00000064       0.00000110      -0.00000047      -0.00000015      -0.00000014       0.00000190
H        4.20923260       4.05033576      16.81106485        0       1.00000000       0.00000088      -0.00000035       0.00000086      -0.00000046       0.00000063      -0.00000009
H        5.61231118       1.63639012       7.78127574        0       1.00000000      -0.00000082      -0.00000012      -0.00000017       0.00000356      -0.00000085      -0.00000115
H        1.41038166       4.04602246       7.78599834        0       1.00000000       0.00000164      -0.00000145      -0.00000054      -0.00000026      -0.00000179      -0.00000200
H        2.80615634       1.61081075       7.75018792        0       1.00000000       0.00000063       0.00000070       0.00000070      -0.00000320      -0.00000159       0.00000211
H        4.20192904       4.04602202       7.78599801        0       1.00000000       0.00000008       0.00000043      -0.00000031      -0.00000142       0.00000254       0.00000055
H        1.40307619       4.05033505      16.81106498        0       1.00000000      -0.00000005      -0.00000167      -0.00000093       0.00000192      -0.00000122      -0.00000198
H        5.61230983       1.62013424      16.81106498        0       1.00000000      -0.00000058      -0.00000115      -0.00000048      -0.00000325       0.00000036       0.00000017
H        2.80615473       1.62013401      16.81106461        0       1.00000000       0.00000178       0.00000001       0.00000077       0.00000124       0.00000090      -0.00000182
21
Lattice="5.612310241546866 0.0 0.0 0.0 4.860403243099165 0.0 0.0 0.0 24.582432123328676" Properties=species:S:1:pos:R:3:tags:I:1:masses:R:1:momenta:R:3:forces:R:3 KEmax=27.14459056223422 iter=119999 volume=670.5618179858607 ns_energy=-14.090233046675086 last_walked_iter_clone=119931 energy=-14.090233046684036 stress="0.009830752537563811 2.1387460342002612e-09 -3.6639053672507923e-09 2.1387460342002612e-09 0.009857993648560472 -3.0317166524734273e-09 -3.6639053672507923e-09 -3.0317166524734273e-09 0.0048701471576586145" pbc="T T T"
H        1.40307756       0.81006721      10.00000000        3       1.00000000       0.00000000       0.00000000       0.00000000       0.00000000       0.00000000       0.00000000
H        4.20923268       0.81006721      10.00000000        3       1.00000000       0.00000000       0.00000000       0.00000000       0.00000000       0.00000000       0.00000000
H        0.00000000       3.24026883      10.00000000        3       1.00000000       0.00000000       0.00000000       0.00000000       0.00000000       0.00000000       0.00000000
H        2.80615512       3.24026883      10.00000000        3       1.00000000       0.00000000       0.00000000       0.00000000       0.00000000       0.00000000       0.00000000
H        0.00000000       1.62013441      12.29121606        2       1.00000000       0.00000000       0.00000000       0.00000000       0.00000000       0.00000000       0.00000000
H        2.80615512       1.62013441      12.29121606        2       1.00000000       0.00000000       0.00000000       0.00000000       0.00000000       0.00000000       0.00000000
H        1.40307756       4.05033604      12.29121606        2       1.00000000       0.00000000       0.00000000       0.00000000       0.00000000       0.00000000       0.00000000
H        4.20923268       4.05033604      12.29121606        2       1.00000000       0.00000000       0.00000000       0.00000000       0.00000000       0.00000000       0.00000000
H        0.00000000       0.00000000      14.58243212        1       1.00000000       0.00000000       0.00000000       0.00000000       0.00000000       0.00000000       0.00000000
H        2.80615512       0.00000000      14.58243212        1       1.00000000       0.00000000       0.00000000       0.00000000       0.00000000       0.00000000       0.00000000
H        1.40307756       2.43020162      14.58243212        1       1.00000000       0.00000000       0.00000000       0.00000000       0.00000000       0.00000000       0.00000000
H        4.20923268       2.43020162      14.58243212        1       1.00000000       0.00000000       0.00000000       0.00000000       0.00000000       0.00000000       0.00000000
H       -0.00000050       0.00113818       5.56692293        0       1.00000000       0.00000031      -0.00000047      -0.00000049      -0.00000015      -0.00000014       0.00000190
H        4.20923263       4.05033661      16.81106434        0       1.00000000      -0.00000030      -0.00000031      -0.00000126      -0.00000046       0.00000063      -0.00000009
H        5.61231169       1.63639022       7.78127419        0       1.00000000      -0.00000082      -0.00000148       0.00000100       0.00000356      -0.00000085      -0.00000115
H        1.41038186       4.04602095       7.78599792        0       1.00000000      -0.00000026       0.00000052      -0.00000172      -0.00000026      -0.00000179      -0.00000200
H        2.80615533       1.61081024       7.75018824        0       1.00000000      -0.00000059      -0.00000052       0.00000017      -0.00000320      -0.00000159       0.00000211
H        4.20192862       4.04602139       7.78599849        0       1.00000000       0.00000165       0.00000080      -0.00000064      -0.00000142       0.00000254       0.00000055
H        1.40307645       4.05033593      16.81106542        0       1.00000000       0.00000108      -0.00000032      -0.00000064       0.00000192      -0.00000122      -0.00000198
H       -0.00000055       1.62013369      16.81106510        0       1.00000000       0.00000019      -0.00000075      -0.00000045      -0.00000325       0.00000036       0.00000017
H        2.80615452       1.62013482      16.81106467        0       1.00000000      -0.00000031       0.00000037      -0.00000010       0.00000124       0.00000090      -0.00000182
21
Lattice="5.612310241546866 0.0 0.0 0.0 4.860403243099165 0.0 0.0 0.0 24.582432123328676" Properties=species:S:1:pos:R:3:tags:I:1:masses:R:1:momenta:R:3:forces:R:3 KEmax=27.14459056223422 iter=119999 volume=670.5618179858607 ns_energy=-14.090233046675081 last_walked_iter_clone=119928 energy=-14.090233046684036 stress="0.009830752537563811 2.1387460342002612e-09 -3.6639053672507923e-09 2.1387460342002612e-09 0.009857993648560472 -3.0317166524734273e-09 -3.6639053672507923e-09 -3.0317166524734273e-09 0.0048701471576586145" pbc="T T T"
H        1.40307756       0.81006721      10.00000000        3       1.00000000       0.00000000       0.00000000       0.00000000       0.00000000       0.00000000       0.00000000
H        4.20923268       0.81006721      10.00000000        3       1.00000000       0.00000000       0.00000000       0.00000000       0.00000000       0.00000000       0.00000000
H        0.00000000       3.24026883      10.00000000        3       1.00000000       0.00000000       0.00000000       0.00000000       0.00000000       0.00000000       0.00000000
H        2.80615512       3.24026883      10.00000000        3       1.00000000       0.00000000       0.00000000       0.00000000       0.00000000       0.00000000       0.00000000
H        0.00000000       1.62013441      12.29121606        2       1.00000000       0.00000000       0.00000000       0.00000000       0.00000000       0.00000000       0.00000000
H        2.80615512       1.62013441      12.29121606        2       1.00000000       0.00000000       0.00000000       0.00000000       0.00000000       0.00000000       0.00000000
H        1.40307756       4.05033604      12.29121606        2       1.00000000       0.00000000       0.00000000       0.00000000       0.00000000       0.00000000       0.00000000
H        4.20923268       4.05033604      12.29121606        2       1.00000000       0.00000000       0.00000000       0.00000000       0.00000000       0.00000000       0.00000000
H        0.00000000       0.00000000      14.58243212        1       1.00000000       0.00000000       0.00000000       0.00000000       0.00000000       0.00000000       0.00000000
H        2.80615512       0.00000000      14.58243212        1       1.00000000       0.00000000       0.00000000       0.00000000       0.00000000       0.00000000       0.00000000
H        1.40307756       2.43020162      14.58243212        1       1.00000000       0.00000000       0.00000000       0.00000000       0.00000000       0.00000000       0.00000000
H        4.20923268       2.43020162      14.58243212        1       1.00000000       0.00000000       0.00000000       0.00000000       0.00000000       0.00000000       0.00000000
H        0.00000047       0.00114126       5.56692231        0       1.00000000      -0.00000088       0.00000033       0.00000108      -0.00000015      -0.00000014       0.00000190
H        4.20923300       4.05033666      16.81106415        0       1.00000000       0.00000055      -0.00000119      -0.00000034      -0.00000046       0.00000063      -0.00000009
H        5.61231089       1.63639002       7.78127578        0       1.00000000       0.00000092       0.00000070       0.00000064       0.00000356      -0.00000085      -0.00000115
H        1.41038093       4.04602105       7.78599752        0       1.00000000      -0.00000138      -0.00000046       0.00000053      -0.00000026      -0.00000179      -0.00000200
H        2.80615517       1.61080907       7.75018882        0       1.00000000       0.00000068      -0.00000109       0.00000017      -0.00000320      -0.00000159       0.00000211
H        4.20192980       4.04602102       7.78599776        0       1.00000000      -0.00000003       0.00000095      -0.00000201      -0.00000142       0.00000254       0.00000055