21
Lattice="5.612310241546866 0.0 0.0 0.0 4.860403243099165 0.0 0.0 0.0 24.582432123328676" Properties=species:S:1:pos:R:3:tags:I:1:masses:R:1:momenta:R:3:forces:R:3 KEmax=27.14459056223422 iter=59889 volume=670.5618179858607 ns_energy=-14.090228670873458 last_walked_iter_clone=59809 energy=-14.09023087611445 stress="0.00983323354790026 -1.958315023939037e-06 3.0450398750390207e-06 -1.958315023939037e-06 0.009858662966412716 -1.943820925541731e-06 3.0450398750390207e-06 -1.943820925541731e-06 0.004877443901677798" pbc="T T T"
H        1.40307756       0.81006721      10.00000000        3       1.00000000       0.00000000       0.00000000       0.00000000       0.00000000       0.00000000       0.00000000
H        4.20923268       0.81006721      10.00000000        3       1.00000000       0.00000000       0.00000000       0.00000000       0.00000000       0.00000000       0.00000000
H        0.00000000       3.24026883      10.00000000        3       1.00000000       0.00000000       0.00000000       0.00000000       0.00000000       0.00000000       0.00000000
H        2.80615512       3.24026883      10.00000000        3       1.00000000       0.00000000       0.00000000       0.00000000       0.00000000       0.00000000       0.00000000
H        0.00000000       1.62013441      12.29121606        2       1.00000000       0.00000000       0.00000000       0.00000000       0.00000000       0.00000000       0.00000000
H        2.80615512       1.62013441      12.29121606        2       1.00000000       0.00000000       0.00000000       0.00000000       0.00000000       0.00000000       0.00000000
H        1.40307756       4.05033604      12.29121606        2       1.00000000       0.00000000       0.00000000       0.00000000       0.00000000       0.00000000       0.00000000
H        4.20923268       4.05033604      12.29121606        2       1.00000000       0.00000000       0.00000000       0.00000000       0.00000000       0.00000000       0.00000000
H        0.00000000       0.00000000      14.58243212        1       1.00000000       0.00000000       0.00000000       0.00000000       0.00000000       0.00000000       0.00000000
H        2.80615512       0.00000000      14.58243212        1       1.00000000       0.00000000       0.00000000       0.00000000       0.00000000       0.00000000       0.00000000
H        1.40307756       2.43020162      14.58243212        1       1.00000000       0.00000000       0.00000000       0.00000000       0.00000000       0.00000000       0.00000000
H        4.20923268       2.43020162      14.58243212        1       1.00000000       0.00000000       0.00000000       0.00000000       0.00000000       0.00000000       0.00000000
H        0.00150371       0.00083304       5.56685198        0       1.00000000       0.00029729      -0.00031582       0.00060179      -0.00007150      -0.00017610       0.00049672
H        4.20911133       4.05011531      16.81110125        0       1.00000000      -0.00022498       0.00038770       0.00064314      -0.00040342      -0.00062107      -0.00023998
H        0.00013100       1.63644545       7.78123039        0       1.00000000       0.00032514       0.00007051      -0.00040031      -0.00076119      -0.00095510       0.00096421
H        1.41081308       4.04589746       7.78571702        0       1.00000000      -0.00037627      -0.00030729      -0.00066256       0.00111278       0.00154711       0.00022323
H        2.80638909       1.61055847       7.75021707        0       1.00000000      -0.00000813       0.00038904      -0.00058906      -0.00064738      -0.00037859      -0.00018202
H        4.20216125       4.04621672       7.78579178        0       1.00000000      -0.00019336       0.00008389       0.00023439       0.00045614       0.00010338      -0.00126573
H        1.40344481       4.05005026      16.81123448        0       1.00000000      -0.00071454      -0.00015995       0.00026606      -0.00091273       0.00010026      -0.00052461
H        5.61252580       1.62011109      16.81074974        0       1.00000000       0.00075784       0.00056676       0.00034393       0.00050407       0.00134492      -0.00033408
H        2.80608055       1.62030946      16.81100212        0       1.00000000       0.00009059       0.00069485       0.00014959      -0.00009663      -0.00028178      -0.00041450
21
Lattice="5.612310241546866 0.0 0.0 0.0 4.860403243099165 0.0 0.0 0.0 24.582432123328676" Properties=species:S:1:pos:R:3:tags:I:1:masses:R:1:momenta:R:3:forces:R:3 KEmax=27.14459056223422 iter=59889 volume=670.5618179858607 ns_energy=-14.090228801647344 last_walked_iter_clone=59823 energy=-14.09023087611445 stress="0.00983323354790026 -1.958315023939037e-06 3.0450398750390207e-06 -1.958315023939037e-06 0.009858662966412716 -1.943820925541731e-06 3.0450398750390207e-06 -1.943820925541731e-06 0.004877443901677798" pbc="T T T"
H        1.40307756       0.81006721      10.00000000        3       1.00000000       0.00000000       0.00000000       0.00000000       0.00000000       0.00000000       0.00000000
H        4.20923268       0.81006721      10.00000000        3       1.00000000       0.00000000       0.00000000       0.00000000       0.00000000       0.00000000       0.00000000
H        0.00000000       3.24026883      10.00000000        3       1.00000000       0.00000000       0.00000000       0.00000000       0.00000000       0.00000000       0.00000000
H        2.80615512       3.24026883      10.00000000        3       1.00000000       0.00000000       0.00000000       0.00000000       0.00000000       0.00000000       0.00000000
H        0.00000000       1.62013441      12.29121606        2       1.00000000       0.00000000       0.00000000       0.00000000       0.00000000       0.00000000       0.00000000
H        2.80615512       1.62013441      12.29121606        2       1.00000000       0.00000000       0.00000000       0.00000000       0.00000000       0.00000000       0.00000000
H        1.40307756       4.05033604      12.29121606        2       1.00000000       0.00000000       0.00000000       0.00000000       0.00000000       0.00000000       0.00000000
H        4.20923268       4.05033604      12.29121606        2       1.00000000       0.00000000       0.00000000       0.00000000       0.00000000       0.00000000       0.00000000
H        0.00000000       0.00000000      14.58243212        1       1.00000000       0.00000000       0.00000000       0.00000000       0.00000000       0.00000000       0.00000000
H        2.80615512       0.00000000      14.58243212        1       1.00000000       0.00000000       0.00000000       0.00000000       0.00000000       0.00000000       0.00000000
H        1.40307756       2.43020162      14.58243212        1       1.00000000       0.00000000       0.00000000       0.00000000       0.00000000       0.00000000       0.00000000
H        4.20923268       2.43020162      14.58243212        1       1.00000000       0.00000000       0.00000000       0.00000000       0.00000000       0.00000000       0.00000000
H        0.00065068       0.00010583       5.56712138        0       1.00000000       0.00003835       0.00028445       0.00066957      -0.00007150      -0.00017610       0.00049672
H        4.20952125       4.05038045      16.81073875        0       1.00000000      -0.00010521       0.00050805       0.00000481      -0.00040342      -0.00062107      -0.00023998
H       -0.00051463       1.63624612       7.78112791        0       1.00000000      -0.00004971       0.00052124      -0.00006886      -0.00076119      -0.00095510       0.00096421
H        1.41046412       4.04559315       7.78572793        0       1.00000000       0.00069950       0.00003459       0.00005015       0.00111278       0.00154711       0.00022323
H        2.80588867       1.61097540       7.75029027        0       1.00000000      -0.00026559      -0.00019929       0.00020498      -0.00064738      -0.00037859      -0.00018202
H        4.20221160       4.04579974       7.78597157        0       1.00000000      -0.00099868      -0.00000100       0.00096609       0.00045614       0.00010338      -0.00126573
H        1.40303092       4.05051677      16.81120670        0       1.00000000       0.00010594       0.00041123      -0.00026426      -0.00091273       0.00010026      -0.00052461
H       -0.00007683       1.62015193      16.81099177        0       1.00000000       0.00000940      -0.00030826      -0.00033453       0.00050407       0.00134492      -0.00033408
H        2.80639024       1.62026648      16.81118624        0       1.00000000       0.00019313      -0.00000137      -0.00030271      -0.00009663      -0.00028178      -0.00041450
21
Lattice="5.612310241546866 0.0 0.0 0.0 4.860403243099165 0.0 0.0 0.0 24.582432123328676" Properties=species:S:1:pos:R:3:tags:I:1:masses:R:1:momenta:R:3:forces:R:3 KEmax=27.14459056223422 iter=59889 volume=670.5618179858607 ns_energy=-14.090228880894712 last_walked_iter_clone=59851 energy=-14.09023087611445 stress="0.00983323354790026 -1.958315023939037e-06 3.0450398750390207e-06 -1.958315023939037e-06 0.009858662966412716 -1.943820925541731e-06 3.0450398750390207e-06 -1.943820925541731e-06 0.004877443901677798" pbc="T T T"
H        1.40307756       0.81006721      10.00000000        3       1.00000000       0.00000000       0.00000000       0.00000000       0.00000000       0.00000000       0.00000000
H        4.20923268       0.81006721      10.00000000        3       1.00000000       0.00000000       0.00000000       0.00000000       0.00000000       0.00000000       0.00000000
H        0.00000000       3.24026883      10.00000000        3       1.00000000       0.00000000       0.00000000       0.00000000       0.00000000       0.00000000       0.00000000
H        2.80615512       3.24026883      10.00000000        3       1.00000000       0.00000000       0.00000000       0.00000000       0.00000000       0.00000000       0.00000000
H        0.00000000       1.62013441      12.29121606        2       1.00000000       0.00000000       0.00000000       0.00000000       0.00000000       0.00000000       0.00000000
H        2.80615512       1.62013441      12.29121606        2       1.00000000       0.00000000       0.00000000       0.00000000       0.00000000       0.00000000       0.00000000
H        1.40307756       4.05033604      12.29121606        2       1.00000000       0.00000000       0.00000000       0.00000000       0.00000000       0.00000000       0.00000000
H        4.20923268       4.05033604      12.29121606        2       1.00000000       0.00000000       0.00000000       0.00000000       0.00000000       0.00000000       0.00000000
H        0.00000000       0.00000000      14.58243212        1       1.00000000       0.00000000       0.00000000       0.00000000       0.00000000       0.00000000       0.00000000
H        2.80615512       0.00000000      14.58243212        1       1.00000000       0.00000000       0.00000000       0.00000000       0.00000000       0.00000000       0.00000000
H        1.40307756       2.43020162      14.58243212        1       1.00000000       0.00000000       0.00000000       0.00000000       0.00000000       0.00000000       0.00000000
H        4.20923268       2.43020162      14.58243212        1       1.00000000       0.00000000       0.00000000       0.00000000       0.00000000       0.00000000       0.00000000
H        0.00107251       0.00095962       5.56716022        0       1.00000000      -0.00014998      -0.00042148      -0.00008190      -0.00007150      -0.00017610       0.00049672
H        4.20895669       4.05035151      16.81085734        0       1.00000000      -0.00029766       0.00003055       0.00013127      -0.00040342      -0.00062107      -0.00023998
H        0.00024627       1.63648238       7.78148022        0       1.00000000       0.00105695      -0.00063939       0.00018378      -0.00076119      -0.00095510       0.00096421
H        1.41053083       4.04623521       7.78642113        0       1.00000000       0.00032060       0.00018185       0.00012263       0.00111278       0.00154711       0.00022323
H        2.80666569       1.61090731       7.74977752        0       1.00000000      -0.00015322       0.00044479      -0.00017707      -0.00064738      -0.00037859      -0.00018202
H        4.20259841       4.04639699       7.78592906        0       1.00000000      -0.00047524      -0.00041911       0.00056423       0.00045614       0.00010338      -0.00126573
H        1.40299335       4.05083370      16.81074519        0       1.00000000       0.00017746       0.00020698      -0.00005255      -0.00091273       0.00010026      -0.00052461
H        5.61203029       1.62029690      16.81083103        0       1.00000000      -0.00009162       0.00043819      -0.00034648       0.00050407       0.00134492      -0.00033408
H        2.80623987       1.62006261      16.81126051        0       1.00000000      -0.00019330       0.00022206       0.00034621      -0.00009663      -0.00028178      -0.00041450
21
Lattice="5.612310241546866 0.0 0.0 0.0 4.860403243099165 0.0 0.0 0.0 24.582432123328676" Properties=species:S:1:pos:R:3:tags:I:1:masses:R:1:momenta:R:3:forces:R:3 KEmax=27.14459056223422 iter=59889 volume=670.5618179858607 ns_energy=-14.090228706142213 last_walked_iter_clone=59862 energy=-14.09023087611445 stress="0.00983323354790026 -1.958315023939037e-06 3.0450398750390207e-06 -1.958315023939037e-06 0.009858662966412716 -1.943820925541731e-06 3.0450398750390207e-06 -1.943820925541731e-06 0.004877443901677798" pbc="T T T"
H        1.40307756       0.81006721      10.00000000        3       1.00000000       0.00000000       0.00000000       0.00000000       0.00000000       0.00000000       0.00000000
H        4.20923268       0.81006721      10.00000000        3       1.00000000       0.00000000       0.00000000       0.00000000       0.00000000       0.00000000       0.00000000
H        0.00000000       3.24026883      10.00000000        3       1.00000000       0.00000000       0.00000000       0.00000000       0.00000000       0.00000000       0.00000000
H        2.80615512       3.24026883      10.00000000        3       1.00000000       0.00000000       0.00000000       0.00000000       0.00000000       0.00000000       0.00000000
H        0.00000000       1.62013441      12.29121606        2       1.00000000       0.00000000       0.00000000       0.00000000       0.00000000       0.00000000       0.00000000
H        2.80615512       1.62013441      12.29121606        2       1.00000000       0.00000000       0.00000000       0.00000000       0.00000000       0.00000000       0.00000000
H        1.40307756       4.05033604      12.29121606        2       1.00000000       0.00000000       0.00000000       0.00000000       0.00000000       0.00000000       0.00000000
H        4.20923268       4.05033604      12.29121606        2       1.00000000       0.00000000       0.00000000       0.00000000       0.00000000       0.00000000       0.00000000
H        0.00000000       0.00000000      14.58243212        1       1.00000000       0.00000000       0.00000000       0.00000000       0.00000000       0.00000000       0.00000000
H        2.80615512       0.00000000      14.58243212        1       1.00000000       0.00000000       0.00000000       0.00000000       0.00000000       0.00000000       0.00000000
H        1.40307756       2.43020162      14.58243212        1       1.00000000       0.00000000       0.00000000       0.00000000       0.00000000       0.00000000       0.00000000
H        4.20923268       2.43020162      14.58243212        1       1.00000000       0.00000000       0.00000000       0.00000000       0.00000000       0.00000000       0.00000000
H        5.61133745       0.00139409       5.56695941        0       1.00000000      -0.00019175      -0.00048407      -0.00040788      -0.00007150      -0.00017610       0.00049672
H        4.20895856       4.04998063      16.81105580        0       1.00000000      -0.00023739      -0.00063207       0.00005959      -0.00040342      -0.00062107      -0.00023998
H        5.61207638       1.63608509       7.78164589        0       1.00000000       0.00032599      -0.00002270       0.00010108      -0.00076119      -0.00095510       0.00096421
H        1.40991321       4.04596108       7.78572055        0       1.00000000       0.00069184      -0.00032370      -0.00060507       0.00111278       0.00154711       0.00022323
H        2.80594397       1.61014834       7.75019119        0       1.00000000       0.00013118      -0.00010796       0.00051504      -0.00064738      -0.00037859      -0.00018202
H        4.20115532       4.04555531       7.78576853        0       1.00000000       0.00032545      -0.00026342       0.00048395       0.00045614       0.00010338      -0.00126573
H        1.40317816       4.05002159      16.81088618        0       1.00000000       0.00000851       0.00039213      -0.00061851      -0.00091273       0.00010026      -0.00052461
H        0.00015518       1.61960579      16.81112797        0       1.00000000      -0.00092455       0.00005073       0.00023211       0.00050407       0.00134492      -0.00033408
H        2.80637872       1.61994170      16.81132712        0       1.00000000      -0.00036594       0.00009500      -0.00064409      -0.00009663      -0.00028178      -0.00041450
21
Lattice="5.612310241546866 0.0 0.0 0.0 4.860403243099165 0.0 0.0 0.0 24.582432123328676" Properties=species:S:1:pos:R:3:tags:I:1:masses:R:1:momenta:R:3:forces:R:3 KEmax=27.14459056223422 iter=59889 volume=670.5618179858607 ns_energy=-14.090228781220986 last_walked_iter_clone=59854 energy=-14.09023087611445 stress="0.00983323354790026 -1.958315023939037e-06 3.0450398750390207e-06 -1.958315023939037e-06 0.009858662966412716 -1.943820925541731e-06 3.0450398750390207e-06 -1.943820925541731e-06 0.004877443901677798" pbc="T T T"
H        1.40307756       0.81006721      10.00000000        3       1.00000000       0.00000000       0.00000000       0.00000000       0.00000000       0.00000000       0.00000000
H        4.20923268       0.81006721      10.00000000        3       1.00000000       0.00000000       0.00000000       0.00000000       0.00000000       0.00000000       0.00000000
H        0.00000000       3.24026883      10.00000000        3       1.00000000       0.00000000       0.00000000       0.00000000       0.00000000       0.00000000       0.00000000
H        2.80615512       3.24026883      10.00000000        3       1.00000000       0.00000000       0.00000000       0.00000000       0.00000000       0.00000000       0.00000000
H        0.00000000       1.62013441      12.29121606        2       1.00000000       0.00000000       0.00000000       0.00000000       0.00000000       0.00000000       0.00000000
H        2.80615512       1.62013441      12.29121606        2       1.00000000       0.00000000       0.00000000       0.00000000       0.00000000       0.00000000       0.00000000
H        1.40307756       4.05033604      12.29121606        2       1.00000000       0.00000000       0.00000000       0.00000000       0.00000000       0.00000000       0.00000000
H        4.20923268       4.05033604      12.29121606        2       1.00000000       0.00000000       0.00000000       0.00000000       0.00000000       0.00000000       0.00000000
H        0.00000000       0.00000000      14.58243212        1       1.00000000       0.00000000       0.00000000       0.00000000       0.00000000       0.00000000       0.00000000
H        2.80615512       0.00000000      14.58243212        1       1.00000000       0.00000000       0.00000000       0.00000000       0.00000000       0.00000000       0.00000000
H        1.40307756       2.43020162      14.58243212        1       1.00000000       0.00000000       0.00000000       0.00000000       0.00000000       0.00000000       0.00000000
H        4.20923268       2.43020162      14.58243212        1       1.00000000       0.00000000       0.00000000       0.00000000       0.00000000       0.00000000       0.00000000
H        5.61165766       0.00030666       5.56710544        0       1.00000000      -0.00007500      -0.00049713       0.00012759      -0.00007150      -0.00017610       0.00049672
H        4.20928778       4.05000749      16.81066937        0       1.00000000      -0.00023876      -0.00045365      -0.00054445      -0.00040342      -0.00062107      -0.00023998
H       -0.00019955       1.63624109       7.78141145        0       1.00000000       0.00037806      -0.00057747       0.00089048      -0.00076119      -0.00095510       0.00096421
H        1.41034747       4.04595901       7.78565449        0       1.00000000       0.00016701       0.00008840      -0.00043267       0.00111278       0.00154711       0.00022323
H        2.80634742       1.61066495       7.74982596        0       1.00000000      -0.00002919       0.00007704      -0.00051961      -0.00064738      -0.00037859      -0.00018202
H        4.20213480       4.04582952       7.78638084        0       1.00000000      -0.00028885       0.00015638      -0.00005234       0.00045614       0.00010338      -0.00126573
H        1.40350706       4.04992845      16.81114043        0       1.00000000      -0.00041016      -0.00022217       0.00005838      -0.00091273       0.00010026      -0.00052461
H        0.00057153       1.61972207      16.81137222        0       1.00000000      -0.00061119       0.00067642      -0.00013942       0.00050407       0.00134492      -0.00033408
H        2.80628699       1.61977859      16.81142558        0       1.00000000       0.00015860      -0.00039524       0.00001119      -0.00009663      -0.00028178      -0.00041450
21
Lattice="5.612310241546866 0.0 0.0 0.0 4.860403243099165 0.0 0.0 0.0 24.582432123328676" Properties=species:S:1:pos:R:3:tags:I:1:masses:R:1:momenta:R:3:forces:R:3 KEmax=27.14459056223422 iter=59889 volume=670.5618179858607 ns_energy=-14.090228831763072 last_walked_iter_clone=59767 energy=-14.09023087611445 stress="0.00983323354790026 -1.958315023939037e-06 3.0450398750390207e-06 -1.958315023939037e-06 0.009858662966412716 -1.943820925541731e-06 3.0450398750390207e-06 -1.943820925541731e-06 0.004877443901677798" pbc="T T T"
H        1.40307756       0.81006721      10.00000000        3       1.00000000       0.00000000       0.00000000       0.00000000       0.00000000       0.00000000       0.00000000
H        4.20923268       0.81006721      10.00000000        3       1.00000000       0.00000000       0.00000000       0.00000000       0.00000000       0.00000000       0.00000000
H        0.00000000       3.24026883      10.00000000        3       1.00000000       0.00000000       0.00000000       0.00000000       0.00000000       0.00000000       0.00000000
H        2.80615512       3.24026883      10.00000000        3       1.00000000       0.00000000       0.00000000       0.00000000       0.00000000       0.00000000       0.00000000
H        0.00000000       1.62013441      12.29121606        2       1.00000000       0.00000000       0.00000000       0.00000000       0.00000000       0.00000000       0.00000000
H        2.80615512       1.62013441      12.29121606        2       1.00000000       0.00000000       0.00000000       0.00000000       0.00000000       0.00000000       0.00000000
H        1.40307756       4.05033604      12.29121606        2       1.00000000       0.00000000       0.00000000       0.00000000       0.00000000       0.00000000       0.00000000
H        4.20923268       4.05033604      12.29121606        2       1.00000000       0.00000000       0.00000000       0.00000000       0.00000000       0.00000000       0.00000000
H        0.00000000       0.00000000      14.58243212        1       1.00000000       0.00000000       0.00000000       0.00000000       0.00000000       0.00000000       0.00000000
H        2.80615512       0.00000000      14.58243212        1       1.00000000       0.00000000       0.00000000       0.00000000       0.00000000       0.00000000       0.00000000
H        1.40307756       2.43020162      14.58243212        1       1.00000000       0.00000000       0.00000000       0.00000000       0.00000000       0.00000000       0.00000000
H        4.20923268       2.43020162      14.58243212        1       1.00000000       0.00000000       0.00000000       0.00000000       0.00000000       0.00000000       0.00000000
H       -0.00000849       0.00030287       5.56726414        0       1.00000000      -0.00024761      -0.00025110       0.00011234      -0.00007150      -0.00017610       0.00049672
H        4.20922655       4.04984108      16.81075115        0       1.00000000      -0.00004644      -0.00001605      -0.00036990      -0.00040342      -0.00062107      -0.00023998
H        5.61240430       1.63600715       7.78100903        0       1.00000000      -0.00048298       0.00003700       0.00038545      -0.00076119      -0.00095510       0.00096421
H        1.41044590       4.04585432       7.78613884        0       1.00000000       0.00032149      -0.00008784      -0.00041395       0.00111278       0.00154711       0.00022323
H        2.80633140       1.61046960       7.75017623        0       1.00000000       0.00034625      -0.00043646       0.00034759      -0.00064738      -0.00037859      -0.00018202
H        4.20218807       4.04596563       7.78559999        0       1.00000000       0.00100133       0.00022106       0.00007848       0.00045614       0.00010338      -0.00126573
H        1.40274966       4.05000499      16.81082641        0       1.00000000      -0.00005783      -0.00019459      -0.00079653      -0.00091273       0.00010026      -0.00052461
H        5.61229694       1.61954412      16.81108230        0       1.00000000       0.00052083      -0.00019055      -0.00024312       0.00050407       0.00134492      -0.00033408
H        2.80620274       1.61991468      16.81113410        0       1.00000000       0.00006538      -0.00080294       0.00035574      -0.00009663      -0.00028178      -0.00041450
21
Lattice="5.612310241546866 0.0 0.0 0.0 4.860403243099165 0.0 0.0 0.0 24.582432123328676" Properties=species:S:1:pos:R:3:tags:I:1:masses:R:1:momenta:R:3:forces:R:3 KEmax=27.14459056223422 iter=59889 volume=670.5618179858607 ns_energy=-14.090228784247964 last_walked_iter_clone=59808 energy=-14.09023087611445 stress="0.00983323354790026 -1.958315023939037e-06 3.0450398750390207e-06 -1.958315023939037e-06 0.009858662966412716 -1.943820925541731e-06 3.0450398750390207e-06 -1.943820925541731e-06 0.004877443901677798" pbc="T T T"
H        1.40307756       0.81006721      10.00000000        3       1.00000000       0.00000000       0.00000000       0.00000000       0.00000000       0.00000000       0.00000000
H        4.20923268       0.81006721      10.00000000        3       1.00000000       0.00000000       0.00000000       0.00000000       0.00000000       0.00000000       0.00000000
H        0.00000000       3.24026883      10.00000000        3       1.00000000       0.00000000       0.00000000       0.00000000       0.00000000       0.00000000       0.00000000
H        2.80615512       3.24026883      10.00000000        3       1.00000000       0.00000000       0.00000000       0.00000000       0.00000000       0.00000000       0.00000000
H        0.00000000       1.62013441      12.29121606        2       1.00000000       0.00000000       0.00000000       0.00000000       0.00000000       0.00000000       0.00000000
H        2.80615512       1.62013441      12.29121606        2       1.00000000       0.00000000       0.00000000       0.00000000       0.00000000       0.00000000       0.00000000
H        1.40307756       4.05033604      12.29121606        2       1.00000000       0.00000000       0.00000000       0.00000000       0.00000000       0.00000000       0.00000000
H        4.20923268       4.05033604      12.29121606        2       1.00000000       0.00000000       0.00000000       0.00000000       0.00000000       0.00000000       0.00000000
H        0.00000000       0.00000000      14.58243212        1       1.00000000       0.00000000       0.00000000       0.00000000       0.00000000       0.00000000       0.00000000
H        2.80615512       0.00000000      14.58243212        1       1.00000000       0.00000000       0.00000000       0.00000000       0.00000000       0.00000000       0.00000000
H        1.40307756       2.43020162      14.58243212        1       1.00000000       0.00000000       0.00000000       0.00000000       0.00000000       0.00000000       0.00000000
H        4.20923268       2.43020162      14.58243212        1       1.00000000       0.00000000       0.00000000       0.00000000       0.00000000       0.00000000       0.00000000
H        0.00149069       0.00109882       5.56633087        0       1.00000000      -0.00016262      -0.00021981      -0.00056272      -0.00007150      -0.00017610       0.00049672
H        4.20953600       4.04996242      16.81135217        0       1.00000000      -0.00002170      -0.00008630       0.00002299      -0.00040342      -0.00062107      -0.00023998
H        5.61274073       1.63608850       7.78107430        0       1.00000000       0.00017134       0.00067042       0.00048355      -0.00076119      -0.00095510       0.00096421
H        1.41079548       4.04599068       7.78595812        0       1.00000000      -0.00036419      -0.00012166      -0.00036242       0.00111278       0.00154711       0.00022323
H        2.80651978       1.61100432       7.75003676        0       1.00000000       0.00088402       0.00000808      -0.00017406      -0.00064738      -0.00037859      -0.00018202
H        4.20274097       4.04608355       7.78595381        0       1.00000000       0.00006369      -0.00070454      -0.00012145       0.00045614       0.00010338      -0.00126573