21
Lattice="5.612310241546866 0.0 0.0 0.0 4.860403243099165 0.0 0.0 0.0 24.582432123328676" Properties=species:S:1:pos:R:3:tags:I:1:masses:R:1:momenta:R:3 KEmax=27.14459056223422 iter=99 volume=670.5618179858607 ns_energy=1081.0090528587527 ns_P=0.0 config_n_global=99 ns_KE=16.51756900629769 pbc="T T T"
H        1.40307756       0.81006721      10.00000000        3       1.00000000       0.00000000       0.00000000       0.00000000
H        4.20923268       0.81006721      10.00000000        3       1.00000000       0.00000000       0.00000000       0.00000000
H        0.00000000       3.24026883      10.00000000        3       1.00000000       0.00000000       0.00000000       0.00000000
H        2.80615512       3.24026883      10.00000000        3       1.00000000       0.00000000       0.00000000       0.00000000
H        0.00000000       1.62013441      12.29121606        2       1.00000000       0.00000000       0.00000000       0.00000000
H        2.80615512       1.62013441      12.29121606        2       1.00000000       0.00000000       0.00000000       0.00000000
H        1.40307756       4.05033604      12.29121606        2       1.00000000       0.00000000       0.00000000       0.00000000
H        4.20923268       4.05033604      12.29121606        2       1.00000000       0.00000000       0.00000000       0.00000000
H        0.00000000       0.00000000      14.58243212        1       1.00000000       0.00000000       0.00000000       0.00000000
H        2.80615512       0.00000000      14.58243212        1       1.00000000       0.00000000       0.00000000       0.00000000
H        1.40307756       2.43020162      14.58243212        1       1.00000000       0.00000000       0.00000000       0.00000000
H        4.20923268       2.43020162      14.58243212        1       1.00000000       0.00000000       0.00000000       0.00000000
H        1.50061403       3.33714950       4.88611853        0       1.00000000      -1.04574685       0.74255091      -2.73724563
H        2.71667366       3.02731873       4.56074494        0       1.00000000       1.10737446       0.81815469      -0.49005552
H        1.86603404       3.38961614       1.16345279        0       1.00000000      -0.42667820      -2.67717238      -1.07017308
H        3.64593931       1.78874446      17.97224799        0       1.00000000       0.48001508      -0.00515924       0.07902457
H        3.01824707       0.81081032      23.12223250        0       1.00000000      -0.84956038      -2.07090762      -0.18888203
H        2.24044415       2.68314044      17.62066497        0       1.00000000      -0.88688183      -1.17798312       0.90022177
H        4.81669300       0.41147996       1.82459145        0       1.00000000      -1.21729083       0.42364025       0.23568104
H        1.35328509       4.44217044      19.91162048        0       1.00000000       0.13542005      -0.27556085       1.07540945
H        3.07079294       2.36336517      20.91827017        0       1.00000000      -0.32029204       0.84342621      -1.10378756
21
Lattice="5.612310241546866 0.0 0.0 0.0 4.860403243099165 0.0 0.0 0.0 24.582432123328676" Properties=species:S:1:pos:R:3:tags:I:1:masses:R:1:momenta:R:3 KEmax=27.14459056223422 iter=199 volume=670.5618179858607 ns_energy=131.46259671403743 ns_P=0.0 config_n_global=199 ns_KE=14.92254869434759 pbc="T T T"
H        1.40307756       0.81006721      10.00000000        3       1.00000000       0.00000000       0.00000000       0.00000000
H        4.20923268       0.81006721      10.00000000        3       1.00000000       0.00000000       0.00000000       0.00000000
H        0.00000000       3.24026883      10.00000000        3       1.00000000       0.00000000       0.00000000       0.00000000
H        2.80615512       3.24026883      10.00000000        3       1.00000000       0.00000000       0.00000000       0.00000000
H        0.00000000       1.62013441      12.29121606        2       1.00000000       0.00000000       0.00000000       0.00000000
H        2.80615512       1.62013441      12.29121606        2       1.00000000       0.00000000       0.00000000       0.00000000
H        1.40307756       4.05033604      12.29121606        2       1.00000000       0.00000000       0.00000000       0.00000000
H        4.20923268       4.05033604      12.29121606        2       1.00000000       0.00000000       0.00000000       0.00000000
H        0.00000000       0.00000000      14.58243212        1       1.00000000       0.00000000       0.00000000       0.00000000
H        2.80615512       0.00000000      14.58243212        1       1.00000000       0.00000000       0.00000000       0.00000000
H        1.40307756       2.43020162      14.58243212        1       1.00000000       0.00000000       0.00000000       0.00000000
H        4.20923268       2.43020162      14.58243212        1       1.00000000       0.00000000       0.00000000       0.00000000
H        1.10660677       0.05769472       3.82076452        0       1.00000000       1.75949105       0.27006943      -0.60362522
H        4.51802956       3.65108964       6.44812808        0       1.00000000      -1.55573945      -0.56664295       1.29939053
H        1.49682177       3.68245972       4.80487044        0       1.00000000       1.91118436      -0.77628915       0.08082627
H        0.58095880       0.73025097      19.88231757        0       1.00000000      -1.25545685      -0.32984347       1.49334886
H        5.06974801       4.36570457       2.46932245        0       1.00000000       0.00513721       0.27676753      -1.64111388
H        0.62459478       2.17044772      23.47033364        0       1.00000000      -1.69659394      -0.25704836      -1.14494540
H        0.99777055       4.27107528      21.41066389        0       1.00000000      -0.56853080       0.40437362      -0.89012052
H        1.54420796       0.48811840      17.63265510        0       1.00000000       0.17696140       0.54430619      -2.03201462
H        0.20426567       4.55047745      17.12360755        0       1.00000000       0.78494527      -0.40628551      -0.40385472
21
Lattice="5.612310241546866 0.0 0.0 0.0 4.860403243099165 0.0 0.0 0.0 24.582432123328676" Properties=species:S:1:pos:R:3:tags:I:1:masses:R:1:momenta:R:3 KEmax=27.14459056223422 iter=299 volume=670.5618179858607 ns_energy=30.67533172184782 last_walked_iter_clone=214 ns_P=0.0 config_n_global=299 ns_KE=26.176947373715457 pbc="T T T"
H        1.40307756       0.81006721      10.00000000        3       1.00000000       0.00000000       0.00000000       0.00000000
H        4.20923268       0.81006721      10.00000000        3       1.00000000       0.00000000       0.00000000       0.00000000
H        0.00000000       3.24026883      10.00000000        3       1.00000000       0.00000000       0.00000000       0.00000000
H        2.80615512       3.24026883      10.00000000        3       1.00000000       0.00000000       0.00000000       0.00000000
H        0.00000000       1.62013441      12.29121606        2       1.00000000       0.00000000       0.00000000       0.00000000
H        2.80615512       1.62013441      12.29121606        2       1.00000000       0.00000000       0.00000000       0.00000000
H        1.40307756       4.05033604      12.29121606        2       1.00000000       0.00000000       0.00000000       0.00000000
H        4.20923268       4.05033604      12.29121606        2       1.00000000       0.00000000       0.00000000       0.00000000
H        0.00000000       0.00000000      14.58243212        1       1.00000000       0.00000000       0.00000000       0.00000000
H        2.80615512       0.00000000      14.58243212        1       1.00000000       0.00000000       0.00000000       0.00000000
H        1.40307756       2.43020162      14.58243212        1       1.00000000       0.00000000       0.00000000       0.00000000
H        4.20923268       2.43020162      14.58243212        1       1.00000000       0.00000000       0.00000000       0.00000000
H        0.58960181       4.39549369      21.68721310        0       1.00000000       0.14299436      -0.23381170      -0.88163826
H        2.22099346       2.34327927      22.25761909        0       1.00000000       0.68577800       1.81894931      -0.12292809
H        3.79499416       3.93182033       6.92178423        0       1.00000000      -1.29373248      -0.91714611      -0.83372339
H        1.11952761       0.74976699      19.50371083        0       1.00000000       2.85698769       2.55782601       0.99823055
H        3.66910949       2.13988582       7.77173099        0       1.00000000       1.52338347      -1.52538902      -2.93174533
H        3.86291972       3.96506850       0.36374261        0       1.00000000       0.88316428      -2.03088646      -0.93624837
H        4.41749400       0.05586435       2.21044513        0       1.00000000       0.05369201       0.11850373       1.93841793
H        5.39220432       4.18255492      19.25364061        0       1.00000000       0.27103478      -1.25295600       1.01552644
H        2.14950884       0.71237118      23.55513662        0       1.00000000      -1.74010578       0.50660353      -0.19714073
21
Lattice="5.612310241546866 0.0 0.0 0.0 4.860403243099165 0.0 0.0 0.0 24.582432123328676" Properties=species:S:1:pos:R:3:tags:I:1:masses:R:1:momenta:R:3 KEmax=27.14459056223422 iter=399 volume=670.5618179858607 ns_energy=18.289096725385686 last_walked_iter_clone=277 ns_P=0.0 config_n_global=399 ns_KE=25.111830806075563 pbc="T T T"
H        1.40307756       0.81006721      10.00000000        3       1.00000000       0.00000000       0.00000000       0.00000000
H        4.20923268       0.81006721      10.00000000        3       1.00000000       0.00000000       0.00000000       0.00000000
H        0.00000000       3.24026883      10.00000000        3       1.00000000       0.00000000       0.00000000       0.00000000
H        2.80615512       3.24026883      10.00000000        3       1.00000000       0.00000000       0.00000000       0.00000000
H        0.00000000       1.62013441      12.29121606        2       1.00000000       0.00000000       0.00000000       0.00000000
H        2.80615512       1.62013441      12.29121606        2       1.00000000       0.00000000       0.00000000       0.00000000
H        1.40307756       4.05033604      12.29121606        2       1.00000000       0.00000000       0.00000000       0.00000000
H        4.20923268       4.05033604      12.29121606        2       1.00000000       0.00000000       0.00000000       0.00000000
H        0.00000000       0.00000000      14.58243212        1       1.00000000       0.00000000       0.00000000       0.00000000
H        2.80615512       0.00000000      14.58243212        1       1.00000000       0.00000000       0.00000000       0.00000000
H        1.40307756       2.43020162      14.58243212        1       1.00000000       0.00000000       0.00000000       0.00000000
H        4.20923268       2.43020162      14.58243212        1       1.00000000       0.00000000       0.00000000       0.00000000
H        0.59267135       1.37165127      16.67070228        0       1.00000000      -1.11426335       0.39268193       1.33592606
H        0.12143607       1.51524012       2.31111065        0       1.00000000      -1.27236066       2.66405771      -0.29443851
H        3.05696768       0.50079755      18.28552762        0       1.00000000      -0.07276580      -1.67876915       0.19767335
H        5.17005591       4.09207458      20.77573808        0       1.00000000       1.82869861      -0.29702269       3.36697125
H        5.25445634       1.39784412      20.78937221        0       1.00000000      -0.77638492       0.77946121      -0.56519140
H        3.80535626       2.65426318      19.32452657        0       1.00000000       0.70184333      -2.04039270       1.58933492
H        5.41468680       1.74543782       0.03264511        0       1.00000000       0.17347044       0.06596186      -1.27644774
H        0.92481642       3.61158462       1.31743986        0       1.00000000       0.61045650       1.64585457      -2.15220136
H        2.27789510       4.69607382       2.88811776        0       1.00000000      -0.83936764      -0.80051542      -1.08386057
21
Lattice="5.612310241546866 0.0 0.0 0.0 4.860403243099165 0.0 0.0 0.0 24.582432123328676" Properties=species:S:1:pos:R:3:tags:I:1:masses:R:1:momenta:R:3 KEmax=27.14459056223422 iter=499 volume=670.5618179858607 ns_energy=16.12472923073512 last_walked_iter_clone=424 ns_P=0.0 config_n_global=499 ns_KE=25.815963397176926 pbc="T T T"
H        1.40307756       0.81006721      10.00000000        3       1.00000000       0.00000000       0.00000000       0.00000000
H        4.20923268       0.81006721      10.00000000        3       1.00000000       0.00000000       0.00000000       0.00000000
H        0.00000000       3.24026883      10.00000000        3       1.00000000       0.00000000       0.00000000       0.00000000
H        2.80615512       3.24026883      10.00000000        3       1.00000000       0.00000000       0.00000000       0.00000000
H        0.00000000       1.62013441      12.29121606        2       1.00000000       0.00000000       0.00000000       0.00000000
H        2.80615512       1.62013441      12.29121606        2       1.00000000       0.00000000       0.00000000       0.00000000
H        1.40307756       4.05033604      12.29121606        2       1.00000000       0.00000000       0.00000000       0.00000000
H        4.20923268       4.05033604      12.29121606        2       1.00000000       0.00000000       0.00000000       0.00000000
H        0.00000000       0.00000000      14.58243212        1       1.00000000       0.00000000       0.00000000       0.00000000
H        2.80615512       0.00000000      14.58243212        1       1.00000000       0.00000000       0.00000000       0.00000000
H        1.40307756       2.43020162      14.58243212        1       1.00000000       0.00000000       0.00000000       0.00000000
H        4.20923268       2.43020162      14.58243212        1       1.00000000       0.00000000       0.00000000       0.00000000
H        4.84488648       1.64014886       6.87051805        0       1.00000000       1.53956127       1.28410528       0.99020277
H        3.09413053       1.94006394      17.14202564        0       1.00000000      -0.77407188      -1.69106565      -0.16627005
H        1.18984265       3.61430105       7.75245062        0       1.00000000       1.28984459       3.45498008      -0.14892701
H        0.89120194       2.57404504       0.60130798        0       1.00000000      -1.26801327       0.83584451      -1.48736818
H        3.14893694       3.23841025       1.94055424        0       1.00000000       0.30647846       2.21135717      -0.80357618
H        4.65925061       2.96619143       4.23423127        0       1.00000000      -0.39022716       2.61187768      -0.14084639
H        0.21734592       0.01783430      17.13745083        0       1.00000000       1.24884743      -1.82498282      -0.20055211
H        2.58066558       1.70105284       6.71824881        0       1.00000000      -0.42226456      -0.34635765      -0.80957990
H        2.20551671       0.20046394       3.51122068        0       1.00000000      -0.33788743       2.43205604      -0.68355523
21
Lattice="5.612310241546866 0.0 0.0 0.0 4.860403243099165 0.0 0.0 0.0 24.582432123328676" Properties=species:S:1:pos:R:3:tags:I:1:masses:R:1:momenta:R:3 KEmax=27.14459056223422 iter=599 volume=670.5618179858607 ns_energy=14.679956335549688 last_walked_iter_clone=447 ns_P=0.0 config_n_global=599 ns_KE=21.60368327834879 pbc="T T T"
H        1.40307756       0.81006721      10.00000000        3       1.00000000       0.00000000       0.00000000       0.00000000
H        4.20923268       0.81006721      10.00000000        3       1.00000000       0.00000000       0.00000000       0.00000000
H        0.00000000       3.24026883      10.00000000        3       1.00000000       0.00000000       0.00000000       0.00000000
H        2.80615512       3.24026883      10.00000000        3       1.00000000       0.00000000       0.00000000       0.00000000
H        0.00000000       1.62013441      12.29121606        2       1.00000000       0.00000000       0.00000000       0.00000000
H        2.80615512       1.62013441      12.29121606        2       1.00000000       0.00000000       0.00000000       0.00000000
H        1.40307756       4.05033604      12.29121606        2       1.00000000       0.00000000       0.00000000       0.00000000
H        4.20923268       4.05033604      12.29121606        2       1.00000000       0.00000000       0.00000000       0.00000000
H        0.00000000       0.00000000      14.58243212        1       1.00000000       0.00000000       0.00000000       0.00000000
H        2.80615512       0.00000000      14.58243212        1       1.00000000       0.00000000       0.00000000       0.00000000
H        1.40307756       2.43020162      14.58243212        1       1.00000000       0.00000000       0.00000000       0.00000000
H        4.20923268       2.43020162      14.58243212        1       1.00000000       0.00000000       0.00000000       0.00000000
H        0.10747019       4.05165495       7.67487751        0       1.00000000       0.65362091      -0.39524662      -0.08098474
H        2.34610612       2.23857214      17.93689281        0       1.00000000      -1.79392412      -1.41922232      -0.19941178
H        4.31805669       4.73944509       2.08629470        0       1.00000000      -0.75665949       1.41435339      -2.39653541
H        0.51584501       0.44074093      22.10206883        0       1.00000000      -1.10807830      -0.87947621      -1.21672401
H        4.86967808       2.03471990      23.20620088        0       1.00000000      -2.85924784       1.12126381       0.17212169
H        4.36742558       4.26161907       5.89166905        0       1.00000000       0.47266881      -0.66699118      -1.80944133
H        5.10290881       0.19507106      17.65765669        0       1.00000000      -0.06104927      -0.18685965       0.88681502
H        0.55071209       2.08840033       6.82116655        0       1.00000000       0.38141198       1.49601028      -2.72700290
H        0.50707134       1.03345820       0.87930353        0       1.00000000      -0.20220940       1.13127136      -0.42054789
21
Lattice="5.612310241546866 0.0 0.0 0.0 4.860403243099165 0.0 0.0 0.0 24.582432123328676" Properties=species:S:1:pos:R:3:tags:I:1:masses:R:1:momenta:R:3 KEmax=27.14459056223422 iter=699 volume=670.5618179858607 ns_energy=13.496316014026345 last_walked_iter_clone=632 ns_P=0.0 config_n_global=699 ns_KE=20.829057892711003 pbc="T T T"
H        1.40307756       0.81006721      10.00000000        3       1.00000000       0.00000000       0.00000000       0.00000000
H        4.20923268       0.81006721      10.00000000        3       1.00000000       0.00000000       0.00000000       0.00000000
H        0.00000000       3.24026883      10.00000000        3       1.00000000       0.00000000       0.00000000       0.00000000
H        2.80615512       3.24026883      10.00000000        3       1.00000000       0.00000000       0.00000000       0.00000000
H        0.00000000       1.62013441      12.29121606        2       1.00000000       0.00000000       0.00000000       0.00000000
H        2.80615512       1.62013441      12.29121606        2       1.00000000       0.00000000       0.00000000       0.00000000
H        1.40307756       4.05033604      12.29121606        2       1.00000000       0.00000000       0.00000000       0.00000000
H        4.20923268       4.05033604      12.29121606        2       1.00000000       0.00000000       0.00000000       0.00000000
H        0.00000000       0.00000000      14.58243212        1       1.00000000       0.00000000       0.00000000       0.00000000
H        2.80615512       0.00000000      14.58243212        1       1.00000000       0.00000000       0.00000000       0.00000000
H        1.40307756       2.43020162      14.58243212        1       1.00000000       0.00000000       0.00000000       0.00000000
H        4.20923268       2.43020162      14.58243212        1       1.00000000       0.00000000       0.00000000       0.00000000
H        3.33341768       2.95967184       2.73558666        0       1.00000000       1.82506935      -1.66578226       1.09848117
H        0.28421822       1.90406609       5.28476423        0       1.00000000       1.02683762      -2.18040420      -0.47795619
H        2.84875271       0.77155156       0.62611110        0       1.00000000       0.68098940      -0.44885296      -1.66166879
H        0.18515664       4.00295893      20.48821013        0       1.00000000      -0.52916000       0.20899356      -0.51738326
H        4.50332101       2.32187337      19.21497398        0       1.00000000      -1.14708623       3.11713361       0.53965307
H        3.04941502       0.62903490      20.28431567        0       1.00000000       2.79777320      -0.55408071      -0.66276975
H        0.96082722       2.60175157       0.42949043        0       1.00000000       0.45288681       0.99730155      -0.66782253
H        1.60850883       4.29666926      23.78910606        0       1.00000000       0.68038450      -0.93920593       0.92750174
H        3.82229455       1.00751642      17.26986514        0       1.00000000      -0.58370653      -0.41973514      -0.16053082
21
Lattice="5.612310241546866 0.0 0.0 0.0 4.860403243099165 0.0 0.0 0.0 24.582432123328676" Properties=species:S:1:pos:R:3:tags:I:1:masses:R:1:momenta:R:3 KEmax=27.14459056223422 iter=799 volume=670.5618179858607 ns_energy=12.263976131262009 last_walked_iter_clone=724 ns_P=0.0 config_n_global=799 ns_KE=19.638411383830032 pbc="T T T"
H        1.40307756       0.81006721      10.00000000        3       1.00000000       0.00000000       0.00000000       0.00000000
H        4.20923268       0.81006721      10.00000000        3       1.00000000       0.00000000       0.00000000       0.00000000
H        0.00000000       3.24026883      10.00000000        3       1.00000000       0.00000000       0.00000000       0.00000000
H        2.80615512       3.24026883      10.00000000        3       1.00000000       0.00000000       0.00000000       0.00000000
H        0.00000000       1.62013441      12.29121606        2       1.00000000       0.00000000       0.00000000       0.00000000
H        2.80615512       1.62013441      12.29121606        2       1.00000000       0.00000000       0.00000000       0.00000000
H        1.40307756       4.05033604      12.29121606        2       1.00000000       0.00000000       0.00000000       0.00000000
H        4.20923268       4.05033604      12.29121606        2       1.00000000       0.00000000       0.00000000       0.00000000
H        0.00000000       0.00000000      14.58243212        1       1.00000000       0.00000000       0.00000000       0.00000000
H        2.80615512       0.00000000      14.58243212        1       1.00000000       0.00000000       0.00000000       0.00000000
H        1.40307756       2.43020162      14.58243212        1       1.00000000       0.00000000       0.00000000       0.00000000
H        4.20923268       2.43020162      14.58243212        1       1.00000000       0.00000000       0.00000000       0.00000000
H        2.77486995       3.10578858      22.48526965        0       1.00000000       0.36818405      -1.56182426      -0.13823790
H        0.84875034       2.78843956      16.78806457        0       1.00000000       0.71101644      -2.11417714      -0.16759217
H        5.31310688       1.44885519      21.78026951        0       1.00000000      -0.56648184      -1.52118880      -0.00250786
H        5.01858245       3.21064385      20.27095860        0       1.00000000       0.29021882      -0.68020385       0.20769299
H        4.28897298       4.34073617       1.31043478        0       1.00000000       0.05383963       1.44478614       0.77653996
H        2.44145076       4.51290457       3.83231944        0       1.00000000       1.62296879      -1.31535276       0.53110657
H        5.03552186       0.99191121       4.89276569        0       1.00000000      -1.81351835       1.99118078      -0.07254637
H        0.20642353       0.70498510      24.32464362        0       1.00000000      -1.59193296      -1.94150472      -1.27816112
H        2.24822818       0.08427643       5.99357405        0       1.00000000       0.03297163      -1.93528879      -1.47384322
21
Lattice="5.612310241546866 0.0 0.0 0.0 4.860403243099165 0.0 0.0 0.0 24.582432123328676" Properties=species:S:1:pos:R:3:tags:I:1:masses:R:1:momenta:R:3 KEmax=27.14459056223422 iter=899 volume=670.5618179858607 ns_energy=11.09484427331661 last_walked_iter_clone=795 ns_P=0.0 config_n_global=899 ns_KE=17.568479219468237 pbc="T T T"
H        1.40307756       0.81006721      10.00000000        3       1.00000000       0.00000000       0.00000000       0.00000000
H        4.20923268       0.81006721      10.00000000        3       1.00000000       0.00000000       0.00000000       0.00000000
H        0.00000000       3.24026883      10.00000000        3       1.00000000       0.00000000       0.00000000       0.00000000
H        2.80615512       3.24026883      10.00000000        3       1.00000000       0.00000000       0.00000000       0.00000000
H        0.00000000       1.62013441      12.29121606        2       1.00000000       0.00000000       0.00000000       0.00000000
H        2.80615512       1.62013441      12.29121606        2       1.00000000       0.00000000       0.00000000       0.00000000
H        1.40307756       4.05033604      12.29121606        2       1.00000000       0.00000000       0.00000000       0.00000000
H        4.20923268       4.05033604      12.29121606        2       1.00000000       0.00000000       0.00000000       0.00000000
H        0.00000000       0.00000000      14.58243212        1       1.00000000       0.00000000       0.00000000       0.00000000
H        2.80615512       0.00000000      14.58243212        1       1.00000000       0.00000000       0.00000000       0.00000000
H        1.40307756       2.43020162      14.58243212        1       1.00000000       0.00000000       0.00000000       0.00000000
H        4.20923268       2.43020162      14.58243212        1       1.00000000       0.00000000       0.00000000       0.00000000
H        1.51123025       1.09332104       6.66402073        0       1.00000000       0.32591871      -0.72209741      -0.61180790
H        1.77030358       2.73796630      21.37318364        0       1.00000000      -2.20309000       0.91174443       0.56439571
H        5.28704893       3.72592094       7.41690371        0       1.00000000      -1.19881599      -0.79873574      -1.91941306
H        2.02377233       2.07743802      24.43037884        0       1.00000000      -0.15186395      -0.12254738      -1.81008748
H        5.14283256       4.63017899      19.09650994        0       1.00000000      -0.88609963      -0.70457621      -0.54641648
H        1.01681502       4.55207936      23.43309808        0       1.00000000      -0.17747139      -2.37081635      -1.60287454
H        1.07889003       4.95728130      20.67391565        0       1.00000000       0.43602122      -2.31272591      -0.02152555
H        2.87459540       1.77733878       4.57871518        0       1.00000000      -0.44225761      -0.32134471      -1.34881993
H        0.79001876       3.26695250       1.08804360        0       1.00000000      -1.26018299       0.09264514       0.04535076
21
Lattice="5.612310241546866 0.0 0.0 0.0 4.860403243099165 0.0 0.0 0.0 24.582432123328676" Properties=species:S:1:pos:R:3:tags:I:1:masses:R:1:momenta:R:3 KEmax=27.14459056223422 iter=999 volume=670.5618179858607 ns_energy=10.008273341489183 last_walked_iter_clone=881 ns_P=0.0 config_n_global=999 ns_KE=19.24950777856957 pbc="T T T"
H        1.40307756       0.81006721      10.00000000        3       1.00000000       0.00000000       0.00000000       0.00000000
H        4.20923268       0.81006721      10.00000000        3       1.00000000       0.00000000       0.00000000       0.00000000
H        0.00000000       3.24026883      10.00000000        3       1.00000000       0.00000000       0.00000000       0.00000000
H        2.80615512       3.24026883      10.00000000        3       1.00000000       0.00000000       0.00000000       0.00000000
H        0.00000000       1.62013441      12.29121606        2       1.00000000       0.00000000       0.00000000       0.00000000
H        2.80615512       1.62013441      12.29121606        2       1.00000000       0.00000000       0.00000000       0.00000000
H        1.40307756       4.05033604      12.29121606        2       1.00000000       0.00000000       0.00000000       0.00000000
H        4.20923268       4.05033604      12.29121606        2       1.00000000       0.00000000       0.00000000       0.00000000
H        0.00000000       0.00000000      14.58243212        1       1.00000000       0.00000000       0.00000000       0.00000000
H        2.80615512       0.00000000      14.58243212        1       1.00000000       0.00000000       0.00000000       0.00000000
H        1.40307756       2.43020162      14.58243212        1       1.00000000       0.00000000       0.00000000       0.00000000
H        4.20923268       2.43020162      14.58243212        1       1.00000000       0.00000000       0.00000000       0.00000000
H        5.32588477       0.12336859      16.90929460        0       1.00000000       0.60287774       0.41517990       1.57590044
H        1.93678179       2.01637493      24.50610280        0       1.00000000      -1.90269794       1.37887554       0.01291140