20
Lattice="5.612310241546866 0.0 0.0 0.0 4.860403243099165 0.0 0.0 0.0 24.582432123328676" Properties=species:S:1:pos:R:3:tags:I:1:masses:R:1:momenta:R:3 KEmax=25.851991011651638 iter=99 volume=670.5618179858607 ns_energy=594.964861493498 ns_P=0.0 config_n_global=99 ns_KE=7.147937757829963 pbc="T T T"
H        1.40307756       0.81006721      10.00000000        3       1.00000000       0.00000000       0.00000000       0.00000000
H        4.20923268       0.81006721      10.00000000        3       1.00000000       0.00000000       0.00000000       0.00000000
H        0.00000000       3.24026883      10.00000000        3       1.00000000       0.00000000       0.00000000       0.00000000
H        2.80615512       3.24026883      10.00000000        3       1.00000000       0.00000000       0.00000000       0.00000000
H        0.00000000       1.62013441      12.29121606        2       1.00000000       0.00000000       0.00000000       0.00000000
H        2.80615512       1.62013441      12.29121606        2       1.00000000       0.00000000       0.00000000       0.00000000
H        1.40307756       4.05033604      12.29121606        2       1.00000000       0.00000000       0.00000000       0.00000000
H        4.20923268       4.05033604      12.29121606        2       1.00000000       0.00000000       0.00000000       0.00000000
H        0.00000000       0.00000000      14.58243212        1       1.00000000       0.00000000       0.00000000       0.00000000
H        2.80615512       0.00000000      14.58243212        1       1.00000000       0.00000000       0.00000000       0.00000000
H        1.40307756       2.43020162      14.58243212        1       1.00000000       0.00000000       0.00000000       0.00000000
H        4.20923268       2.43020162      14.58243212        1       1.00000000       0.00000000       0.00000000       0.00000000
H        3.28457998       3.61189127       5.31501551        0       1.00000000      -0.74751023      -0.47533810       0.96591123
H        2.63872918       3.81960998       1.28742181        0       1.00000000       1.70704893      -0.62351918       0.55302554
H        0.99743183       0.56642984      21.73335351        0       1.00000000       0.08199479      -0.67914821      -0.30999453
H        3.94385927       1.30379288      18.07119074        0       1.00000000      -1.44727084      -0.80427157       0.11050875
H        0.85862693       2.45556924       6.58687315        0       1.00000000       0.99044655      -0.71731410      -0.51652262
H        3.99064845       0.11055620       4.82520851        0       1.00000000      -0.54000856      -0.59614678       0.08838566
H        5.35087424       1.12517516       4.12342458        0       1.00000000      -1.32944313      -0.13300225       0.16697123
H        3.19748717       1.12500976       5.30675496        0       1.00000000       1.18519476      -0.00886074      -0.13014968
20
Lattice="5.612310241546866 0.0 0.0 0.0 4.860403243099165 0.0 0.0 0.0 24.582432123328676" Properties=species:S:1:pos:R:3:tags:I:1:masses:R:1:momenta:R:3 KEmax=25.851991011651638 iter=199 volume=670.5618179858607 ns_energy=25.401668891063085 ns_P=0.0 config_n_global=199 ns_KE=9.037579668582957 pbc="T T T"
H        1.40307756       0.81006721      10.00000000        3       1.00000000       0.00000000       0.00000000       0.00000000
H        4.20923268       0.81006721      10.00000000        3       1.00000000       0.00000000       0.00000000       0.00000000
H        0.00000000       3.24026883      10.00000000        3       1.00000000       0.00000000       0.00000000       0.00000000
H        2.80615512       3.24026883      10.00000000        3       1.00000000       0.00000000       0.00000000       0.00000000
H        0.00000000       1.62013441      12.29121606        2       1.00000000       0.00000000       0.00000000       0.00000000
H        2.80615512       1.62013441      12.29121606        2       1.00000000       0.00000000       0.00000000       0.00000000
H        1.40307756       4.05033604      12.29121606        2       1.00000000       0.00000000       0.00000000       0.00000000
H        4.20923268       4.05033604      12.29121606        2       1.00000000       0.00000000       0.00000000       0.00000000
H        0.00000000       0.00000000      14.58243212        1       1.00000000       0.00000000       0.00000000       0.00000000
H        2.80615512       0.00000000      14.58243212        1       1.00000000       0.00000000       0.00000000       0.00000000
H        1.40307756       2.43020162      14.58243212        1       1.00000000       0.00000000       0.00000000       0.00000000
H        4.20923268       2.43020162      14.58243212        1       1.00000000       0.00000000       0.00000000       0.00000000
H        5.42207599       0.28288813      20.99758542        0       1.00000000       0.36988443       0.98641437      -0.59171843
H        0.94639739       1.16719696      23.12217451        0       1.00000000       1.14286786      -0.03525309      -0.63073547
H        1.14360697       2.68319025       4.48012570        0       1.00000000       0.08579215      -0.49926281      -0.08074866
H        2.84702240       1.62064215      22.45433840        0       1.00000000       1.17958712      -1.48233392       0.05139241
H        1.58171909       0.41498751      21.10597891        0       1.00000000      -0.01334126      -0.24734954      -0.36538146
H        4.95759437       4.60390891      24.29145062        0       1.00000000       0.53332387      -0.47506124      -2.26888195
H        5.15071032       0.59065822      17.02057167        0       1.00000000      -1.18331164      -0.24290696       0.70965006
H        5.03155254       0.81620654       3.96556416        0       1.00000000       0.43440918      -1.69198324       0.43393640
20
Lattice="5.612310241546866 0.0 0.0 0.0 4.860403243099165 0.0 0.0 0.0 24.582432123328676" Properties=species:S:1:pos:R:3:tags:I:1:masses:R:1:momenta:R:3 KEmax=25.851991011651638 iter=299 volume=670.5618179858607 ns_energy=16.461053174443453 last_walked_iter_clone=221 ns_P=0.0 config_n_global=299 ns_KE=24.846164347720027 pbc="T T T"
H        1.40307756       0.81006721      10.00000000        3       1.00000000       0.00000000       0.00000000       0.00000000
H        4.20923268       0.81006721      10.00000000        3       1.00000000       0.00000000       0.00000000       0.00000000
H        0.00000000       3.24026883      10.00000000        3       1.00000000       0.00000000       0.00000000       0.00000000
H        2.80615512       3.24026883      10.00000000        3       1.00000000       0.00000000       0.00000000       0.00000000
H        0.00000000       1.62013441      12.29121606        2       1.00000000       0.00000000       0.00000000       0.00000000
H        2.80615512       1.62013441      12.29121606        2       1.00000000       0.00000000       0.00000000       0.00000000
H        1.40307756       4.05033604      12.29121606        2       1.00000000       0.00000000       0.00000000       0.00000000
H        4.20923268       4.05033604      12.29121606        2       1.00000000       0.00000000       0.00000000       0.00000000
H        0.00000000       0.00000000      14.58243212        1       1.00000000       0.00000000       0.00000000       0.00000000
H        2.80615512       0.00000000      14.58243212        1       1.00000000       0.00000000       0.00000000       0.00000000
H        1.40307756       2.43020162      14.58243212        1       1.00000000       0.00000000       0.00000000       0.00000000
H        4.20923268       2.43020162      14.58243212        1       1.00000000       0.00000000       0.00000000       0.00000000
H        5.45870580       2.27858509       2.53769166        0       1.00000000       1.17884540       0.49228426      -0.36511576
H        0.51115113       1.35063769       7.85049771        0       1.00000000       1.76099552      -0.36396735      -1.21787418
H        3.06051736       4.32909809       5.06023344        0       1.00000000      -0.76009328       0.10160747      -0.52638951
H        0.05293017       2.32115470      22.57626239        0       1.00000000       1.19879553       1.91635097       0.48364665
H        0.99899570       1.05830192      18.44265385        0       1.00000000      -0.83771714      -1.40067061      -4.77326398
H        1.91735596       2.69693223      19.80071451        0       1.00000000      -2.02428671      -1.24912718       0.00027160
H        0.17082265       0.21122486       5.30311434        0       1.00000000      -1.20570964       1.16484773       0.72594649
H        2.27533805       0.46508733      22.03849446        0       1.00000000      -0.80358695      -1.32685406      -0.38984065
20
Lattice="5.612310241546866 0.0 0.0 0.0 4.860403243099165 0.0 0.0 0.0 24.582432123328676" Properties=species:S:1:pos:R:3:tags:I:1:masses:R:1:momenta:R:3 KEmax=25.851991011651638 iter=399 volume=670.5618179858607 ns_energy=14.803009963374846 last_walked_iter_clone=145 ns_P=0.0 config_n_global=399 ns_KE=23.239149803752987 pbc="T T T"
H        1.40307756       0.81006721      10.00000000        3       1.00000000       0.00000000       0.00000000       0.00000000
H        4.20923268       0.81006721      10.00000000        3       1.00000000       0.00000000       0.00000000       0.00000000
H        0.00000000       3.24026883      10.00000000        3       1.00000000       0.00000000       0.00000000       0.00000000
H        2.80615512       3.24026883      10.00000000        3       1.00000000       0.00000000       0.00000000       0.00000000
H        0.00000000       1.62013441      12.29121606        2       1.00000000       0.00000000       0.00000000       0.00000000
H        2.80615512       1.62013441      12.29121606        2       1.00000000       0.00000000       0.00000000       0.00000000
H        1.40307756       4.05033604      12.29121606        2       1.00000000       0.00000000       0.00000000       0.00000000
H        4.20923268       4.05033604      12.29121606        2       1.00000000       0.00000000       0.00000000       0.00000000
H        0.00000000       0.00000000      14.58243212        1       1.00000000       0.00000000       0.00000000       0.00000000
H        2.80615512       0.00000000      14.58243212        1       1.00000000       0.00000000       0.00000000       0.00000000
H        1.40307756       2.43020162      14.58243212        1       1.00000000       0.00000000       0.00000000       0.00000000
H        4.20923268       2.43020162      14.58243212        1       1.00000000       0.00000000       0.00000000       0.00000000
H        3.46097106       1.00662709       4.00485385        0       1.00000000      -0.15727615       0.18815074       0.71346288
H        1.38514965       0.22901136       4.16204703        0       1.00000000       1.68214131      -1.82272762      -0.19459465
H        2.93791592       2.97071690       1.89291761        0       1.00000000       0.11420783      -0.64329661       2.38713969
H        1.53507675       3.38142433      19.57077076        0       1.00000000       2.05323639       2.54567233       1.41547938
H        4.78792787       2.05221395      17.82354710        0       1.00000000      -1.99833824      -0.79497586      -0.71085665
H        1.56121389       1.01210508       1.72560932        0       1.00000000      -0.52989990       2.04725158      -2.31221603
H        1.32456580       4.21477766      16.68346111        0       1.00000000       1.38401602      -0.76819172       0.48151512
H        2.48179114       1.89851549       7.61530287        0       1.00000000      -0.00176907       1.71503252      -0.51610233
20
Lattice="5.612310241546866 0.0 0.0 0.0 4.860403243099165 0.0 0.0 0.0 24.582432123328676" Properties=species:S:1:pos:R:3:tags:I:1:masses:R:1:momenta:R:3 KEmax=25.851991011651638 iter=499 volume=670.5618179858607 ns_energy=13.07751481436187 last_walked_iter_clone=457 ns_P=0.0 config_n_global=499 ns_KE=20.282455071654173 pbc="T T T"
H        1.40307756       0.81006721      10.00000000        3       1.00000000       0.00000000       0.00000000       0.00000000
H        4.20923268       0.81006721      10.00000000        3       1.00000000       0.00000000       0.00000000       0.00000000
H        0.00000000       3.24026883      10.00000000        3       1.00000000       0.00000000       0.00000000       0.00000000
H        2.80615512       3.24026883      10.00000000        3       1.00000000       0.00000000       0.00000000       0.00000000
H        0.00000000       1.62013441      12.29121606        2       1.00000000       0.00000000       0.00000000       0.00000000
H        2.80615512       1.62013441      12.29121606        2       1.00000000       0.00000000       0.00000000       0.00000000
H        1.40307756       4.05033604      12.29121606        2       1.00000000       0.00000000       0.00000000       0.00000000
H        4.20923268       4.05033604      12.29121606        2       1.00000000       0.00000000       0.00000000       0.00000000
H        0.00000000       0.00000000      14.58243212        1       1.00000000       0.00000000       0.00000000       0.00000000
H        2.80615512       0.00000000      14.58243212        1       1.00000000       0.00000000       0.00000000       0.00000000
H        1.40307756       2.43020162      14.58243212        1       1.00000000       0.00000000       0.00000000       0.00000000
H        4.20923268       2.43020162      14.58243212        1       1.00000000       0.00000000       0.00000000       0.00000000
H        3.03767191       1.11003619       1.56794781        0       1.00000000       0.27195233       1.03026095      -2.07117684
H        5.31236462       1.70840558      20.32099258        0       1.00000000      -0.26969739       0.55579836       0.46174801
H        1.02392752       4.30730919      23.79081826        0       1.00000000       1.29966280       1.37866441      -0.33328840
H       -0.06793673       1.25889113       6.29505991        0       1.00000000      -0.87193724       0.41210742      -3.19635772
H        4.89112616       1.75627632       4.03296238        0       1.00000000       0.29054246      -0.98872053       0.76181122
H        1.50457396       4.54648692      20.57909550        0       1.00000000       0.92226250      -0.92100437       0.98725436
H        3.19876076       1.47429722       5.35569012        0       1.00000000       0.73024486      -0.82812483      -3.34774433
H        0.86873973       4.28187028       2.31541325        0       1.00000000      -1.48247208       0.16321030      -0.85470581
20
Lattice="5.612310241546866 0.0 0.0 0.0 4.860403243099165 0.0 0.0 0.0 24.582432123328676" Properties=species:S:1:pos:R:3:tags:I:1:masses:R:1:momenta:R:3 KEmax=25.851991011651638 iter=599 volume=670.5618179858607 ns_energy=11.901971791316594 last_walked_iter_clone=537 ns_P=0.0 config_n_global=599 ns_KE=20.71477155727964 pbc="T T T"
H        1.40307756       0.81006721      10.00000000        3       1.00000000       0.00000000       0.00000000       0.00000000
H        4.20923268       0.81006721      10.00000000        3       1.00000000       0.00000000       0.00000000       0.00000000
H        0.00000000       3.24026883      10.00000000        3       1.00000000       0.00000000       0.00000000       0.00000000
H        2.80615512       3.24026883      10.00000000        3       1.00000000       0.00000000       0.00000000       0.00000000
H        0.00000000       1.62013441      12.29121606        2       1.00000000       0.00000000       0.00000000       0.00000000
H        2.80615512       1.62013441      12.29121606        2       1.00000000       0.00000000       0.00000000       0.00000000
H        1.40307756       4.05033604      12.29121606        2       1.00000000       0.00000000       0.00000000       0.00000000
H        4.20923268       4.05033604      12.29121606        2       1.00000000       0.00000000       0.00000000       0.00000000
H        0.00000000       0.00000000      14.58243212        1       1.00000000       0.00000000       0.00000000       0.00000000
H        2.80615512       0.00000000      14.58243212        1       1.00000000       0.00000000       0.00000000       0.00000000
H        1.40307756       2.43020162      14.58243212        1       1.00000000       0.00000000       0.00000000       0.00000000
H        4.20923268       2.43020162      14.58243212        1       1.00000000       0.00000000       0.00000000       0.00000000
H        3.18343411       1.33273614       7.50296461        0       1.00000000       0.16023520       1.20376081      -1.25231667
H        3.15959139       2.87246796      22.86290535        0       1.00000000       0.14127862       0.73129628       0.10621570
H        3.40604440       1.17279423      17.06452402        0       1.00000000      -0.52891022      -0.26479246       0.08808095
H        4.30872879       0.91638847      22.06698322        0       1.00000000       1.25072163      -2.54182660      -2.79807627
H        5.68556322       4.89688134      17.99803041        0       1.00000000      -2.92058201      -1.14941162      -0.48499479
H        4.17453019       4.49804169      -0.11626620        0       1.00000000      -0.14423821      -0.72085440       0.85722326
H        2.90329751       2.28495503       2.54930162        0       1.00000000      -0.40576192       2.21132802      -0.19584931
H        2.63481119       4.63938167       2.07108018        0       1.00000000       0.06104170      -2.21044458      -0.51406364
20
Lattice="5.612310241546866 0.0 0.0 0.0 4.860403243099165 0.0 0.0 0.0 24.582432123328676" Properties=species:S:1:pos:R:3:tags:I:1:masses:R:1:momenta:R:3 KEmax=25.851991011651638 iter=699 volume=670.5618179858607 ns_energy=10.55332642102811 last_walked_iter_clone=671 ns_P=0.0 config_n_global=699 ns_KE=19.393825946378918 pbc="T T T"
H        1.40307756       0.81006721      10.00000000        3       1.00000000       0.00000000       0.00000000       0.00000000
H        4.20923268       0.81006721      10.00000000        3       1.00000000       0.00000000       0.00000000       0.00000000
H        0.00000000       3.24026883      10.00000000        3       1.00000000       0.00000000       0.00000000       0.00000000
H        2.80615512       3.24026883      10.00000000        3       1.00000000       0.00000000       0.00000000       0.00000000
H        0.00000000       1.62013441      12.29121606        2       1.00000000       0.00000000       0.00000000       0.00000000
H        2.80615512       1.62013441      12.29121606        2       1.00000000       0.00000000       0.00000000       0.00000000
H        1.40307756       4.05033604      12.29121606        2       1.00000000       0.00000000       0.00000000       0.00000000
H        4.20923268       4.05033604      12.29121606        2       1.00000000       0.00000000       0.00000000       0.00000000
H        0.00000000       0.00000000      14.58243212        1       1.00000000       0.00000000       0.00000000       0.00000000
H        2.80615512       0.00000000      14.58243212        1       1.00000000       0.00000000       0.00000000       0.00000000
H        1.40307756       2.43020162      14.58243212        1       1.00000000       0.00000000       0.00000000       0.00000000
H        4.20923268       2.43020162      14.58243212        1       1.00000000       0.00000000       0.00000000       0.00000000
H        4.64465556       3.38672628       7.17907279        0       1.00000000      -1.76805464       1.37914188       0.10806080
H        3.31699511       1.02341582       4.03369159        0       1.00000000       1.16782194      -1.37866712      -0.02180088
H        0.75842900       2.19118948      20.72256583        0       1.00000000      -2.22285209      -1.19662272       0.36591819
H        3.14350421       0.81740181      21.89074743        0       1.00000000      -0.66502103       3.19846754       0.16685411
H        2.01241929       0.88192199      17.10964716        0       1.00000000       2.07166800       1.53230735      -1.22312128
H        4.30265263       3.33810565       0.83806045        0       1.00000000       0.00414928       0.56827721      -1.61528160
H        4.17004476       4.69500789      19.95355769        0       1.00000000      -1.18425303       0.52193143      -0.20007553
H        0.65225911       0.76963918       5.97177990        0       1.00000000       0.41050726       0.35766638       0.44331429
20
Lattice="5.612310241546866 0.0 0.0 0.0 4.860403243099165 0.0 0.0 0.0 24.582432123328676" Properties=species:S:1:pos:R:3:tags:I:1:masses:R:1:momenta:R:3 KEmax=25.851991011651638 iter=799 volume=670.5618179858607 ns_energy=9.332728129817864 last_walked_iter_clone=708 ns_P=0.0 config_n_global=799 ns_KE=17.214851700327145 pbc="T T T"
H        1.40307756       0.81006721      10.00000000        3       1.00000000       0.00000000       0.00000000       0.00000000
H        4.20923268       0.81006721      10.00000000        3       1.00000000       0.00000000       0.00000000       0.00000000
H        0.00000000       3.24026883      10.00000000        3       1.00000000       0.00000000       0.00000000       0.00000000
H        2.80615512       3.24026883      10.00000000        3       1.00000000       0.00000000       0.00000000       0.00000000
H        0.00000000       1.62013441      12.29121606        2       1.00000000       0.00000000       0.00000000       0.00000000
H        2.80615512       1.62013441      12.29121606        2       1.00000000       0.00000000       0.00000000       0.00000000
H        1.40307756       4.05033604      12.29121606        2       1.00000000       0.00000000       0.00000000       0.00000000
H        4.20923268       4.05033604      12.29121606        2       1.00000000       0.00000000       0.00000000       0.00000000
H        0.00000000       0.00000000      14.58243212        1       1.00000000       0.00000000       0.00000000       0.00000000
H        2.80615512       0.00000000      14.58243212        1       1.00000000       0.00000000       0.00000000       0.00000000
H        1.40307756       2.43020162      14.58243212        1       1.00000000       0.00000000       0.00000000       0.00000000
H        4.20923268       2.43020162      14.58243212        1       1.00000000       0.00000000       0.00000000       0.00000000
H        3.10314868       2.79306135       7.08507879        0       1.00000000       0.61382571      -0.51006343      -0.11344450
H        3.00369475       0.01134799      24.20801822        0       1.00000000       0.76786491      -0.41260384       1.29582338
H        0.72295748       0.43009187       5.94417100        0       1.00000000       0.11702656       0.33347357      -0.21836272
H        0.42447481       3.02355856      17.45886772        0       1.00000000       1.46564987      -1.25857872      -0.99968230
H        4.43255187       1.92168451       3.43558503        0       1.00000000      -0.23546547       0.24444702      -0.05278001
H        0.87837812       2.18889803      20.96178346        0       1.00000000      -2.61825945       0.18889943       0.70847015
H        1.02564324       2.42216178       3.29072826        0       1.00000000      -2.53900538       0.64811179       2.74055186
H        1.38968526       1.71392323      24.04085577        0       1.00000000      -0.34298790       0.97606998       1.86502521
20
Lattice="5.612310241546866 0.0 0.0 0.0 4.860403243099165 0.0 0.0 0.0 24.582432123328676" Properties=species:S:1:pos:R:3:tags:I:1:masses:R:1:momenta:R:3 KEmax=25.851991011651638 iter=899 volume=670.5618179858607 ns_energy=8.218657184704565 last_walked_iter_clone=743 ns_P=0.0 config_n_global=899 ns_KE=17.289089870757692 pbc="T T T"
H        1.40307756       0.81006721      10.00000000        3       1.00000000       0.00000000       0.00000000       0.00000000
H        4.20923268       0.81006721      10.00000000        3       1.00000000       0.00000000       0.00000000       0.00000000
H        0.00000000       3.24026883      10.00000000        3       1.00000000       0.00000000       0.00000000       0.00000000
H        2.80615512       3.24026883      10.00000000        3       1.00000000       0.00000000       0.00000000       0.00000000
H        0.00000000       1.62013441      12.29121606        2       1.00000000       0.00000000       0.00000000       0.00000000
H        2.80615512       1.62013441      12.29121606        2       1.00000000       0.00000000       0.00000000       0.00000000
H        1.40307756       4.05033604      12.29121606        2       1.00000000       0.00000000       0.00000000       0.00000000
H        4.20923268       4.05033604      12.29121606        2       1.00000000       0.00000000       0.00000000       0.00000000
H        0.00000000       0.00000000      14.58243212        1       1.00000000       0.00000000       0.00000000       0.00000000
H        2.80615512       0.00000000      14.58243212        1       1.00000000       0.00000000       0.00000000       0.00000000
H        1.40307756       2.43020162      14.58243212        1       1.00000000       0.00000000       0.00000000       0.00000000
H        4.20923268       2.43020162      14.58243212        1       1.00000000       0.00000000       0.00000000       0.00000000
H        3.73929634       0.16635584      17.09023313        0       1.00000000       1.05465401       0.00789120      -0.53708644
H        1.88525645       3.19450639      22.90321842        0       1.00000000       0.35605958       0.01948638      -0.69336631
H        4.74315965       1.85290961       1.18990480        0       1.00000000       1.56419631       0.68590272       1.68222565
H        2.29614201       3.19754191      19.05584156        0       1.00000000      -1.16900396       2.19746481      -0.63535456
H        0.12673959       2.44043368       7.40608829        0       1.00000000       0.20852470      -0.11824767      -0.29612400
H        4.95163437       3.20068780      22.13238426        0       1.00000000       0.68457256       0.77635358      -2.29313640
H       -0.07789831       3.97479429      18.75097546        0       1.00000000      -3.13612968      -0.82316470      -0.42748042
H        1.39377569       0.79735714       1.30613074        0       1.00000000       0.42166678      -1.45952690       0.86291850
20
Lattice="5.612310241546866 0.0 0.0 0.0 4.860403243099165 0.0 0.0 0.0 24.582432123328676" Properties=species:S:1:pos:R:3:tags:I:1:masses:R:1:momenta:R:3 KEmax=25.851991011651638 iter=999 volume=670.5618179858607 ns_energy=7.223537330171479 last_walked_iter_clone=893 ns_P=0.0 config_n_global=999 ns_KE=15.308973541218261 pbc="T T T"
H        1.40307756       0.81006721      10.00000000        3       1.00000000       0.00000000       0.00000000       0.00000000
H        4.20923268       0.81006721      10.00000000        3       1.00000000       0.00000000       0.00000000       0.00000000
H        0.00000000       3.24026883      10.00000000        3       1.00000000       0.00000000       0.00000000       0.00000000
H        2.80615512       3.24026883      10.00000000        3       1.00000000       0.00000000       0.00000000       0.00000000
H        0.00000000       1.62013441      12.29121606        2       1.00000000       0.00000000       0.00000000       0.00000000
H        2.80615512       1.62013441      12.29121606        2       1.00000000       0.00000000       0.00000000       0.00000000
H        1.40307756       4.05033604      12.29121606        2       1.00000000       0.00000000       0.00000000       0.00000000
H        4.20923268       4.05033604      12.29121606        2       1.00000000       0.00000000       0.00000000       0.00000000
H        0.00000000       0.00000000      14.58243212        1       1.00000000       0.00000000       0.00000000       0.00000000
H        2.80615512       0.00000000      14.58243212        1       1.00000000       0.00000000       0.00000000       0.00000000
H        1.40307756       2.43020162      14.58243212        1       1.00000000       0.00000000       0.00000000       0.00000000
H        4.20923268       2.43020162      14.58243212        1       1.00000000       0.00000000       0.00000000       0.00000000
H        2.23842925       1.58463471      23.15399433        0       1.00000000      -0.57412797      -0.28267185       0.81684506
H        1.89488302       2.62251868       2.65578137        0       1.00000000       0.99915443      -1.25620878       0.90698398
H        4.98333811       3.73617360       3.64541912        0       1.00000000       1.38510374       2.12798658       0.85542130
H        0.38846321       2.45936738       0.12740666        0       1.00000000       0.19498742      -0.09630890       0.09433156
H        4.62422788       4.20979217       0.82204271        0       1.00000000       0.12118264       2.27978066       0.51562488
H        3.16032023       3.03657001      17.92449678        0       1.00000000       1.30298254       1.10873797       0.18366138
H        4.07841546       1.23326844      19.83018816        0       1.00000000      -0.09784812      -1.07459192      -0.73458636
H        0.36253102       1.85892034       8.13822875        0       1.00000000      -0.87043135       2.40563145      -1.48997132
20
Lattice="5.612310241546866 0.0 0.0 0.0 4.860403243099165 0.0 0.0 0.0 24.582432123328676" Properties=species:S:1:pos:R:3:tags:I:1:masses:R:1:momenta:R:3 KEmax=25.851991011651638 iter=1099 volume=670.5618179858607 ns_energy=6.281655144281979 last_walked_iter_clone=1037 ns_P=0.0 config_n_global=1099 ns_KE=15.63259806763335 pbc="T T T"
H        1.40307756       0.81006721      10.00000000        3       1.00000000       0.00000000       0.00000000       0.00000000