18
Lattice="5.612310241546866 0.0 0.0 0.0 4.860403243099165 0.0 0.0 0.0 44.58243212332868" Properties=species:S:1:pos:R:3:tags:I:1:masses:R:1:momenta:R:3:forces:R:3 KEmax=23.26679191048647 iter=162819 volume=1216.1236359717223 ns_energy=-11.638031574713574 last_walked_iter_clone=162593 energy=-11.638031574883644 stress="0.022584324426302517 -2.0159180370296963e-08 5.035945198684588e-08 -2.0159180370296963e-08 0.022698619993891805 -7.201341127879344e-08 5.035945198684588e-08 -7.201341127879344e-08 0.012278197763581055" pbc="T T F"
H        1.40307756       0.81006721      20.00000000        3       1.00000000       0.00000000       0.00000000       0.00000000       0.00000000       0.00000000       0.00000000
H        4.20923268       0.81006721      20.00000000        3       1.00000000       0.00000000       0.00000000       0.00000000       0.00000000       0.00000000       0.00000000
H        0.00000000       3.24026883      20.00000000        3       1.00000000       0.00000000       0.00000000       0.00000000       0.00000000       0.00000000       0.00000000
H        2.80615512       3.24026883      20.00000000        3       1.00000000       0.00000000       0.00000000       0.00000000       0.00000000       0.00000000       0.00000000
H        0.00000000       1.62013441      22.29121606        2       1.00000000       0.00000000       0.00000000       0.00000000       0.00000000       0.00000000       0.00000000
H        2.80615512       1.62013441      22.29121606        2       1.00000000       0.00000000       0.00000000       0.00000000       0.00000000       0.00000000       0.00000000
H        1.40307756       4.05033604      22.29121606        2       1.00000000       0.00000000       0.00000000       0.00000000       0.00000000       0.00000000       0.00000000
H        4.20923268       4.05033604      22.29121606        2       1.00000000       0.00000000       0.00000000       0.00000000       0.00000000       0.00000000       0.00000000
H        0.00000000       0.00000000      24.58243212        1       1.00000000       0.00000000       0.00000000       0.00000000       0.00000000       0.00000000       0.00000000
H        2.80615512       0.00000000      24.58243212        1       1.00000000       0.00000000       0.00000000       0.00000000       0.00000000       0.00000000       0.00000000
H        1.40307756       2.43020162      24.58243212        1       1.00000000       0.00000000       0.00000000       0.00000000       0.00000000       0.00000000       0.00000000
H        4.20923268       2.43020162      24.58243212        1       1.00000000       0.00000000       0.00000000       0.00000000       0.00000000       0.00000000       0.00000000
H        2.79622586       1.61998576      26.81113010        0       1.00000000       0.00000552       0.00000354      -0.00000159       0.00000272      -0.00000137       0.00000359
H        1.40307879       4.05033718      17.77136471        0       1.00000000       0.00000122       0.00000109       0.00000104      -0.00000053      -0.00001694       0.00000516
H        4.21916443       4.05018874      26.81113257        0       1.00000000      -0.00000255       0.00000896       0.00000636       0.00000054      -0.00000331      -0.00000389
H        5.61231598       1.62013644      17.77136373        0       1.00000000      -0.00000585       0.00000716      -0.00000624      -0.00000495      -0.00000204       0.00000044
H        2.80616053       1.62013167      17.77136959        0       1.00000000       0.00000123       0.00000275       0.00000642       0.00000979       0.00001347      -0.00000034
H        4.20923200       4.05033859      17.77136528        0       1.00000000       0.00000238      -0.00000257      -0.00000190       0.00000452      -0.00000670      -0.00000037
18
Lattice="5.612310241546866 0.0 0.0 0.0 4.860403243099165 0.0 0.0 0.0 44.58243212332868" Properties=species:S:1:pos:R:3:tags:I:1:masses:R:1:momenta:R:3:forces:R:3 KEmax=23.26679191048647 iter=162819 volume=1216.1236359717223 ns_energy=-11.638031574724549 last_walked_iter_clone=162736 energy=-11.638031574883644 stress="0.022584324426302517 -2.0159180370296963e-08 5.035945198684588e-08 -2.0159180370296963e-08 0.022698619993891805 -7.201341127879344e-08 5.035945198684588e-08 -7.201341127879344e-08 0.012278197763581055" pbc="T T F"
H        1.40307756       0.81006721      20.00000000        3       1.00000000       0.00000000       0.00000000       0.00000000       0.00000000       0.00000000       0.00000000
H        4.20923268       0.81006721      20.00000000        3       1.00000000       0.00000000       0.00000000       0.00000000       0.00000000       0.00000000       0.00000000
H        0.00000000       3.24026883      20.00000000        3       1.00000000       0.00000000       0.00000000       0.00000000       0.00000000       0.00000000       0.00000000
H        2.80615512       3.24026883      20.00000000        3       1.00000000       0.00000000       0.00000000       0.00000000       0.00000000       0.00000000       0.00000000
H        0.00000000       1.62013441      22.29121606        2       1.00000000       0.00000000       0.00000000       0.00000000       0.00000000       0.00000000       0.00000000
H        2.80615512       1.62013441      22.29121606        2       1.00000000       0.00000000       0.00000000       0.00000000       0.00000000       0.00000000       0.00000000
H        1.40307756       4.05033604      22.29121606        2       1.00000000       0.00000000       0.00000000       0.00000000       0.00000000       0.00000000       0.00000000
H        4.20923268       4.05033604      22.29121606        2       1.00000000       0.00000000       0.00000000       0.00000000       0.00000000       0.00000000       0.00000000
H        0.00000000       0.00000000      24.58243212        1       1.00000000       0.00000000       0.00000000       0.00000000       0.00000000       0.00000000       0.00000000
H        2.80615512       0.00000000      24.58243212        1       1.00000000       0.00000000       0.00000000       0.00000000       0.00000000       0.00000000       0.00000000
H        1.40307756       2.43020162      24.58243212        1       1.00000000       0.00000000       0.00000000       0.00000000       0.00000000       0.00000000       0.00000000
H        4.20923268       2.43020162      24.58243212        1       1.00000000       0.00000000       0.00000000       0.00000000       0.00000000       0.00000000       0.00000000
H        2.79622735       1.61998215      26.81113075        0       1.00000000       0.00000527      -0.00000322       0.00000040       0.00000272      -0.00000137       0.00000359
H        1.40308336       4.05033185      17.77136652        0       1.00000000       0.00000339       0.00000058      -0.00000059      -0.00000053      -0.00001694       0.00000516
H        4.21916000       4.05018181      26.81113274        0       1.00000000       0.00000192      -0.00000263       0.00000173       0.00000054      -0.00000331      -0.00000389
H        0.00000414       1.62013475      17.77136307        0       1.00000000      -0.00000116       0.00000625       0.00001190      -0.00000495      -0.00000204       0.00000044
H        2.80616018       1.62013341      17.77136455        0       1.00000000      -0.00000311       0.00000051      -0.00000298       0.00000979       0.00001347      -0.00000034
H        4.20923675       4.05033573      17.77136890        0       1.00000000       0.00000284      -0.00000277      -0.00000523       0.00000452      -0.00000670      -0.00000037
18
Lattice="5.612310241546866 0.0 0.0 0.0 4.860403243099165 0.0 0.0 0.0 44.58243212332868" Properties=species:S:1:pos:R:3:tags:I:1:masses:R:1:momenta:R:3:forces:R:3 KEmax=23.26679191048647 iter=162819 volume=1216.1236359717223 ns_energy=-11.638031574705424 last_walked_iter_clone=162817 energy=-11.638031574883644 stress="0.022584324426302517 -2.0159180370296963e-08 5.035945198684588e-08 -2.0159180370296963e-08 0.022698619993891805 -7.201341127879344e-08 5.035945198684588e-08 -7.201341127879344e-08 0.012278197763581055" pbc="T T F"
H        1.40307756       0.81006721      20.00000000        3       1.00000000       0.00000000       0.00000000       0.00000000       0.00000000       0.00000000       0.00000000
H        4.20923268       0.81006721      20.00000000        3       1.00000000       0.00000000       0.00000000       0.00000000       0.00000000       0.00000000       0.00000000
H        0.00000000       3.24026883      20.00000000        3       1.00000000       0.00000000       0.00000000       0.00000000       0.00000000       0.00000000       0.00000000
H        2.80615512       3.24026883      20.00000000        3       1.00000000       0.00000000       0.00000000       0.00000000       0.00000000       0.00000000       0.00000000
H        0.00000000       1.62013441      22.29121606        2       1.00000000       0.00000000       0.00000000       0.00000000       0.00000000       0.00000000       0.00000000
H        2.80615512       1.62013441      22.29121606        2       1.00000000       0.00000000       0.00000000       0.00000000       0.00000000       0.00000000       0.00000000
H        1.40307756       4.05033604      22.29121606        2       1.00000000       0.00000000       0.00000000       0.00000000       0.00000000       0.00000000       0.00000000
H        4.20923268       4.05033604      22.29121606        2       1.00000000       0.00000000       0.00000000       0.00000000       0.00000000       0.00000000       0.00000000
H        0.00000000       0.00000000      24.58243212        1       1.00000000       0.00000000       0.00000000       0.00000000       0.00000000       0.00000000       0.00000000
H        2.80615512       0.00000000      24.58243212        1       1.00000000       0.00000000       0.00000000       0.00000000       0.00000000       0.00000000       0.00000000
H        1.40307756       2.43020162      24.58243212        1       1.00000000       0.00000000       0.00000000       0.00000000       0.00000000       0.00000000       0.00000000
H        4.20923268       2.43020162      24.58243212        1       1.00000000       0.00000000       0.00000000       0.00000000       0.00000000       0.00000000       0.00000000
H        2.79622572       1.61998574      26.81113404        0       1.00000000      -0.00000125      -0.00000073      -0.00000159       0.00000272      -0.00000137       0.00000359
H        1.40307681       4.05033505      17.77136781        0       1.00000000      -0.00000511       0.00000479      -0.00000366      -0.00000053      -0.00001694       0.00000516
H        4.21915740       4.05018951      26.81112731        0       1.00000000      -0.00000323       0.00000093       0.00000256       0.00000054      -0.00000331      -0.00000389
H        0.00000232       1.62013195      17.77136088        0       1.00000000       0.00000114      -0.00001124       0.00000424      -0.00000495      -0.00000204       0.00000044
H        2.80615772       1.62013002      17.77136453        0       1.00000000      -0.00000659       0.00000117       0.00000219       0.00000979       0.00001347      -0.00000034
H        4.20923339       4.05033147      17.77136698        0       1.00000000      -0.00000170      -0.00000294       0.00000535       0.00000452      -0.00000670      -0.00000037
18
Lattice="5.612310241546866 0.0 0.0 0.0 4.860403243099165 0.0 0.0 0.0 44.58243212332868" Properties=species:S:1:pos:R:3:tags:I:1:masses:R:1:momenta:R:3:forces:R:3 KEmax=23.26679191048647 iter=162819 volume=1216.1236359717223 ns_energy=-11.63803157473325 last_walked_iter_clone=162784 energy=-11.638031574883644 stress="0.022584324426302517 -2.0159180370296963e-08 5.035945198684588e-08 -2.0159180370296963e-08 0.022698619993891805 -7.201341127879344e-08 5.035945198684588e-08 -7.201341127879344e-08 0.012278197763581055" pbc="T T F"
H        1.40307756       0.81006721      20.00000000        3       1.00000000       0.00000000       0.00000000       0.00000000       0.00000000       0.00000000       0.00000000
H        4.20923268       0.81006721      20.00000000        3       1.00000000       0.00000000       0.00000000       0.00000000       0.00000000       0.00000000       0.00000000
H        0.00000000       3.24026883      20.00000000        3       1.00000000       0.00000000       0.00000000       0.00000000       0.00000000       0.00000000       0.00000000
H        2.80615512       3.24026883      20.00000000        3       1.00000000       0.00000000       0.00000000       0.00000000       0.00000000       0.00000000       0.00000000
H        0.00000000       1.62013441      22.29121606        2       1.00000000       0.00000000       0.00000000       0.00000000       0.00000000       0.00000000       0.00000000
H        2.80615512       1.62013441      22.29121606        2       1.00000000       0.00000000       0.00000000       0.00000000       0.00000000       0.00000000       0.00000000
H        1.40307756       4.05033604      22.29121606        2       1.00000000       0.00000000       0.00000000       0.00000000       0.00000000       0.00000000       0.00000000
H        4.20923268       4.05033604      22.29121606        2       1.00000000       0.00000000       0.00000000       0.00000000       0.00000000       0.00000000       0.00000000
H        0.00000000       0.00000000      24.58243212        1       1.00000000       0.00000000       0.00000000       0.00000000       0.00000000       0.00000000       0.00000000
H        2.80615512       0.00000000      24.58243212        1       1.00000000       0.00000000       0.00000000       0.00000000       0.00000000       0.00000000       0.00000000
H        1.40307756       2.43020162      24.58243212        1       1.00000000       0.00000000       0.00000000       0.00000000       0.00000000       0.00000000       0.00000000
H        4.20923268       2.43020162      24.58243212        1       1.00000000       0.00000000       0.00000000       0.00000000       0.00000000       0.00000000       0.00000000
H        2.79621724       1.61999054      26.81112944        0       1.00000000       0.00000201      -0.00000066      -0.00000159       0.00000272      -0.00000137       0.00000359
H        1.40307528       4.05033442      17.77136450        0       1.00000000       0.00000180       0.00000048      -0.00000656      -0.00000053      -0.00001694       0.00000516
H        4.21916821       4.05018858      26.81112623        0       1.00000000       0.00000056      -0.00000202      -0.00000231       0.00000054      -0.00000331      -0.00000389
H        5.61231025       1.62013385      17.77136699        0       1.00000000       0.00000552      -0.00000664      -0.00000015      -0.00000495      -0.00000204       0.00000044
H        2.80614972       1.62013131      17.77136797        0       1.00000000       0.00000414       0.00000385       0.00000103       0.00000979       0.00001347      -0.00000034
H        4.20922672       4.05033661      17.77136970        0       1.00000000       0.00000275       0.00000222      -0.00000433       0.00000452      -0.00000670      -0.00000037
18
Lattice="5.612310241546866 0.0 0.0 0.0 4.860403243099165 0.0 0.0 0.0 44.58243212332868" Properties=species:S:1:pos:R:3:tags:I:1:masses:R:1:momenta:R:3:forces:R:3 KEmax=23.26679191048647 iter=162819 volume=1216.1236359717223 ns_energy=-11.638031574714253 last_walked_iter_clone=162670 energy=-11.638031574883644 stress="0.022584324426302517 -2.0159180370296963e-08 5.035945198684588e-08 -2.0159180370296963e-08 0.022698619993891805 -7.201341127879344e-08 5.035945198684588e-08 -7.201341127879344e-08 0.012278197763581055" pbc="T T F"
H        1.40307756       0.81006721      20.00000000        3       1.00000000       0.00000000       0.00000000       0.00000000       0.00000000       0.00000000       0.00000000
H        4.20923268       0.81006721      20.00000000        3       1.00000000       0.00000000       0.00000000       0.00000000       0.00000000       0.00000000       0.00000000
H        0.00000000       3.24026883      20.00000000        3       1.00000000       0.00000000       0.00000000       0.00000000       0.00000000       0.00000000       0.00000000
H        2.80615512       3.24026883      20.00000000        3       1.00000000       0.00000000       0.00000000       0.00000000       0.00000000       0.00000000       0.00000000
H        0.00000000       1.62013441      22.29121606        2       1.00000000       0.00000000       0.00000000       0.00000000       0.00000000       0.00000000       0.00000000
H        2.80615512       1.62013441      22.29121606        2       1.00000000       0.00000000       0.00000000       0.00000000       0.00000000       0.00000000       0.00000000
H        1.40307756       4.05033604      22.29121606        2       1.00000000       0.00000000       0.00000000       0.00000000       0.00000000       0.00000000       0.00000000
H        4.20923268       4.05033604      22.29121606        2       1.00000000       0.00000000       0.00000000       0.00000000       0.00000000       0.00000000       0.00000000
H        0.00000000       0.00000000      24.58243212        1       1.00000000       0.00000000       0.00000000       0.00000000       0.00000000       0.00000000       0.00000000
H        2.80615512       0.00000000      24.58243212        1       1.00000000       0.00000000       0.00000000       0.00000000       0.00000000       0.00000000       0.00000000
H        1.40307756       2.43020162      24.58243212        1       1.00000000       0.00000000       0.00000000       0.00000000       0.00000000       0.00000000       0.00000000
H        4.20923268       2.43020162      24.58243212        1       1.00000000       0.00000000       0.00000000       0.00000000       0.00000000       0.00000000       0.00000000
H        2.79622672       1.61998415      26.81113103        0       1.00000000       0.00000265       0.00000530      -0.00000203       0.00000272      -0.00000137       0.00000359
H        1.40307921       4.05033617      17.77136928        0       1.00000000       0.00000305      -0.00000536      -0.00000387      -0.00000053      -0.00001694       0.00000516
H        4.21915857       4.05018845      26.81113160        0       1.00000000       0.00000068       0.00000436       0.00000092       0.00000054      -0.00000331      -0.00000389
H        5.61231272       1.62014126      17.77137118        0       1.00000000      -0.00000172       0.00000271      -0.00000542      -0.00000495      -0.00000204       0.00000044
H        2.80615731       1.62013592      17.77136914        0       1.00000000       0.00000108      -0.00000229       0.00000151       0.00000979       0.00001347      -0.00000034
H        4.20923394       4.05033842      17.77137175        0       1.00000000       0.00000292      -0.00000625      -0.00000887       0.00000452      -0.00000670      -0.00000037
18
Lattice="5.612310241546866 0.0 0.0 0.0 4.860403243099165 0.0 0.0 0.0 44.58243212332868" Properties=species:S:1:pos:R:3:tags:I:1:masses:R:1:momenta:R:3:forces:R:3 KEmax=23.26679191048647 iter=162819 volume=1216.1236359717223 ns_energy=-11.638031574708444 last_walked_iter_clone=162265 energy=-11.638031574883644 stress="0.022584324426302517 -2.0159180370296963e-08 5.035945198684588e-08 -2.0159180370296963e-08 0.022698619993891805 -7.201341127879344e-08 5.035945198684588e-08 -7.201341127879344e-08 0.012278197763581055" pbc="T T F"
H        1.40307756       0.81006721      20.00000000        3       1.00000000       0.00000000       0.00000000       0.00000000       0.00000000       0.00000000       0.00000000
H        4.20923268       0.81006721      20.00000000        3       1.00000000       0.00000000       0.00000000       0.00000000       0.00000000       0.00000000       0.00000000
H        0.00000000       3.24026883      20.00000000        3       1.00000000       0.00000000       0.00000000       0.00000000       0.00000000       0.00000000       0.00000000
H        2.80615512       3.24026883      20.00000000        3       1.00000000       0.00000000       0.00000000       0.00000000       0.00000000       0.00000000       0.00000000
H        0.00000000       1.62013441      22.29121606        2       1.00000000       0.00000000       0.00000000       0.00000000       0.00000000       0.00000000       0.00000000
H        2.80615512       1.62013441      22.29121606        2       1.00000000       0.00000000       0.00000000       0.00000000       0.00000000       0.00000000       0.00000000
H        1.40307756       4.05033604      22.29121606        2       1.00000000       0.00000000       0.00000000       0.00000000       0.00000000       0.00000000       0.00000000
H        4.20923268       4.05033604      22.29121606        2       1.00000000       0.00000000       0.00000000       0.00000000       0.00000000       0.00000000       0.00000000
H        0.00000000       0.00000000      24.58243212        1       1.00000000       0.00000000       0.00000000       0.00000000       0.00000000       0.00000000       0.00000000
H        2.80615512       0.00000000      24.58243212        1       1.00000000       0.00000000       0.00000000       0.00000000       0.00000000       0.00000000       0.00000000
H        1.40307756       2.43020162      24.58243212        1       1.00000000       0.00000000       0.00000000       0.00000000       0.00000000       0.00000000       0.00000000
H        4.20923268       2.43020162      24.58243212        1       1.00000000       0.00000000       0.00000000       0.00000000       0.00000000       0.00000000       0.00000000
H        2.79622098       1.61999397      26.81113248        0       1.00000000       0.00000536      -0.00000048       0.00000167       0.00000272      -0.00000137       0.00000359
H        1.40308006       4.05033140      17.77137013        0       1.00000000       0.00000268       0.00000298      -0.00000152      -0.00000053      -0.00001694       0.00000516
H        4.21915724       4.05019535      26.81113382        0       1.00000000       0.00000802       0.00000103      -0.00000066       0.00000054      -0.00000331      -0.00000389
H        0.00000110       1.62012735      17.77137214        0       1.00000000      -0.00000149      -0.00000719       0.00000160      -0.00000495      -0.00000204       0.00000044
H        2.80615877       1.62013096      17.77136758        0       1.00000000      -0.00000457      -0.00000890       0.00000091       0.00000979       0.00001347      -0.00000034
H        4.20923618       4.05033040      17.77136756        0       1.00000000      -0.00000347       0.00000260      -0.00000037       0.00000452      -0.00000670      -0.00000037
18
Lattice="5.612310241546866 0.0 0.0 0.0 4.860403243099165 0.0 0.0 0.0 44.58243212332868" Properties=species:S:1:pos:R:3:tags:I:1:masses:R:1:momenta:R:3:forces:R:3 KEmax=23.26679191048647 iter=162819 volume=1216.1236359717223 ns_energy=-11.638031574708508 last_walked_iter_clone=162531 energy=-11.638031574883644 stress="0.022584324426302517 -2.0159180370296963e-08 5.035945198684588e-08 -2.0159180370296963e-08 0.022698619993891805 -7.201341127879344e-08 5.035945198684588e-08 -7.201341127879344e-08 0.012278197763581055" pbc="T T F"
H        1.40307756       0.81006721      20.00000000        3       1.00000000       0.00000000       0.00000000       0.00000000       0.00000000       0.00000000       0.00000000
H        4.20923268       0.81006721      20.00000000        3       1.00000000       0.00000000       0.00000000       0.00000000       0.00000000       0.00000000       0.00000000
H        0.00000000       3.24026883      20.00000000        3       1.00000000       0.00000000       0.00000000       0.00000000       0.00000000       0.00000000       0.00000000
H        2.80615512       3.24026883      20.00000000        3       1.00000000       0.00000000       0.00000000       0.00000000       0.00000000       0.00000000       0.00000000
H        0.00000000       1.62013441      22.29121606        2       1.00000000       0.00000000       0.00000000       0.00000000       0.00000000       0.00000000       0.00000000
H        2.80615512       1.62013441      22.29121606        2       1.00000000       0.00000000       0.00000000       0.00000000       0.00000000       0.00000000       0.00000000
H        1.40307756       4.05033604      22.29121606        2       1.00000000       0.00000000       0.00000000       0.00000000       0.00000000       0.00000000       0.00000000
H        4.20923268       4.05033604      22.29121606        2       1.00000000       0.00000000       0.00000000       0.00000000       0.00000000       0.00000000       0.00000000
H        0.00000000       0.00000000      24.58243212        1       1.00000000       0.00000000       0.00000000       0.00000000       0.00000000       0.00000000       0.00000000
H        2.80615512       0.00000000      24.58243212        1       1.00000000       0.00000000       0.00000000       0.00000000       0.00000000       0.00000000       0.00000000
H        1.40307756       2.43020162      24.58243212        1       1.00000000       0.00000000       0.00000000       0.00000000       0.00000000       0.00000000       0.00000000
H        4.20923268       2.43020162      24.58243212        1       1.00000000       0.00000000       0.00000000       0.00000000       0.00000000       0.00000000       0.00000000
H        2.79622086       1.61999813      26.81113357        0       1.00000000      -0.00000116       0.00000155      -0.00000257       0.00000272      -0.00000137       0.00000359
H        1.40308097       4.05033485      17.77136799        0       1.00000000      -0.00000319      -0.00000813      -0.00000703      -0.00000053      -0.00001694       0.00000516
H        4.21916546       4.05019726      26.81113096        0       1.00000000      -0.00000040      -0.00000234       0.00000500       0.00000054      -0.00000331      -0.00000389
H       -0.00000060       1.62013619      17.77137093        0       1.00000000       0.00000135       0.00000243      -0.00000644      -0.00000495      -0.00000204       0.00000044
H        2.80615336       1.62013606      17.77136673        0       1.00000000      -0.00000539       0.00000328       0.00000074       0.00000979       0.00001347      -0.00000034
H        4.20923146       4.05033336      17.77136766        0       1.00000000      -0.00000148      -0.00000386       0.00000292       0.00000452      -0.00000670      -0.00000037
18
Lattice="5.612310241546866 0.0 0.0 0.0 4.860403243099165 0.0 0.0 0.0 44.58243212332868" Properties=species:S:1:pos:R:3:tags:I:1:masses:R:1:momenta:R:3:forces:R:3 KEmax=23.26679191048647 iter=162819 volume=1216.1236359717223 ns_energy=-11.638031574705613 last_walked_iter_clone=162737 energy=-11.638031574883644 stress="0.022584324426302517 -2.0159180370296963e-08 5.035945198684588e-08 -2.0159180370296963e-08 0.022698619993891805 -7.201341127879344e-08 5.035945198684588e-08 -7.201341127879344e-08 0.012278197763581055" pbc="T T F"
H        1.40307756       0.81006721      20.00000000        3       1.00000000       0.00000000       0.00000000       0.00000000       0.00000000       0.00000000       0.00000000
H        4.20923268       0.81006721      20.00000000        3       1.00000000       0.00000000       0.00000000       0.00000000       0.00000000       0.00000000       0.00000000
H        0.00000000       3.24026883      20.00000000        3       1.00000000       0.00000000       0.00000000       0.00000000       0.00000000       0.00000000       0.00000000
H        2.80615512       3.24026883      20.00000000        3       1.00000000       0.00000000       0.00000000       0.00000000       0.00000000       0.00000000       0.00000000
H        0.00000000       1.62013441      22.29121606        2       1.00000000       0.00000000       0.00000000       0.00000000       0.00000000       0.00000000       0.00000000
H        2.80615512       1.62013441      22.29121606        2       1.00000000       0.00000000       0.00000000       0.00000000       0.00000000       0.00000000       0.00000000
H        1.40307756       4.05033604      22.29121606        2       1.00000000       0.00000000       0.00000000       0.00000000       0.00000000       0.00000000       0.00000000
H        4.20923268       4.05033604      22.29121606        2       1.00000000       0.00000000       0.00000000       0.00000000       0.00000000       0.00000000       0.00000000
H        0.00000000       0.00000000      24.58243212        1       1.00000000       0.00000000       0.00000000       0.00000000       0.00000000       0.00000000       0.00000000
H        2.80615512       0.00000000      24.58243212        1       1.00000000       0.00000000       0.00000000       0.00000000       0.00000000       0.00000000       0.00000000
H        1.40307756       2.43020162      24.58243212        1       1.00000000       0.00000000       0.00000000       0.00000000       0.00000000       0.00000000       0.00000000
H        4.20923268       2.43020162      24.58243212        1       1.00000000       0.00000000       0.00000000       0.00000000       0.00000000       0.00000000       0.00000000
H        2.79622556       1.61998700      26.81113457        0       1.00000000      -0.00000120      -0.00000301       0.00000385       0.00000272      -0.00000137       0.00000359
H        1.40307845       4.05033824      17.77136977        0       1.00000000      -0.00000272       0.00000804       0.00000172      -0.00000053      -0.00001694       0.00000516
H        4.21915757       4.05018427      26.81112895        0       1.00000000       0.00000557       0.00000303      -0.00000041       0.00000054      -0.00000331      -0.00000389