18
Lattice="5.612310241546866 0.0 0.0 0.0 4.860403243099165 0.0 0.0 0.0 44.58243212332868" Properties=species:S:1:pos:R:3:tags:I:1:masses:R:1:momenta:R:3:forces:R:3 KEmax=23.26679191048647 iter=81979 volume=1216.1236359717223 ns_energy=-11.63796338862811 last_walked_iter_clone=81864 energy=-11.638001202293363 stress="0.022583894198021523 2.4938587924090695e-05 -2.181499555974061e-05 2.4938587924090695e-05 0.02266178667195948 -2.2889569485868165e-05 -2.181499555974061e-05 -2.2889569485868165e-05 0.012296480604219163" pbc="T T F"
H        1.40307756       0.81006721      20.00000000        3       1.00000000       0.00000000       0.00000000       0.00000000       0.00000000       0.00000000       0.00000000
H        4.20923268       0.81006721      20.00000000        3       1.00000000       0.00000000       0.00000000       0.00000000       0.00000000       0.00000000       0.00000000
H        0.00000000       3.24026883      20.00000000        3       1.00000000       0.00000000       0.00000000       0.00000000       0.00000000       0.00000000       0.00000000
H        2.80615512       3.24026883      20.00000000        3       1.00000000       0.00000000       0.00000000       0.00000000       0.00000000       0.00000000       0.00000000
H        0.00000000       1.62013441      22.29121606        2       1.00000000       0.00000000       0.00000000       0.00000000       0.00000000       0.00000000       0.00000000
H        2.80615512       1.62013441      22.29121606        2       1.00000000       0.00000000       0.00000000       0.00000000       0.00000000       0.00000000       0.00000000
H        1.40307756       4.05033604      22.29121606        2       1.00000000       0.00000000       0.00000000       0.00000000       0.00000000       0.00000000       0.00000000
H        4.20923268       4.05033604      22.29121606        2       1.00000000       0.00000000       0.00000000       0.00000000       0.00000000       0.00000000       0.00000000
H        0.00000000       0.00000000      24.58243212        1       1.00000000       0.00000000       0.00000000       0.00000000       0.00000000       0.00000000       0.00000000
H        2.80615512       0.00000000      24.58243212        1       1.00000000       0.00000000       0.00000000       0.00000000       0.00000000       0.00000000       0.00000000
H        1.40307756       2.43020162      24.58243212        1       1.00000000       0.00000000       0.00000000       0.00000000       0.00000000       0.00000000       0.00000000
H        4.20923268       2.43020162      24.58243212        1       1.00000000       0.00000000       0.00000000       0.00000000       0.00000000       0.00000000       0.00000000
H        2.79588377       1.61699651      26.81471783        0       1.00000000      -0.00134474       0.00209135       0.00235338      -0.00122487       0.00368500       0.00319975
H        1.40006323       4.05018073      17.76973194        0       1.00000000      -0.00141689      -0.00002313      -0.00289578      -0.00024656       0.00054415       0.00322452
H        4.21832854       4.04811244      26.80998717        0       1.00000000       0.00066012       0.00167691       0.00077400       0.00306401      -0.00214283       0.00037076
H        5.61175201       1.62072100      17.77089142        0       1.00000000      -0.00301393       0.00077893       0.00093944       0.00343233       0.00200208      -0.00080012
H        2.80504254       1.62068440      17.77104881        0       1.00000000      -0.00025698       0.00259764      -0.00084867      -0.00295417      -0.00681199       0.00563496
H        4.20768708       4.05073716      17.77396526        0       1.00000000       0.00132024       0.00129789      -0.00124913      -0.00080122       0.00328397      -0.00191658
18
Lattice="5.612310241546866 0.0 0.0 0.0 4.860403243099165 0.0 0.0 0.0 44.58243212332868" Properties=species:S:1:pos:R:3:tags:I:1:masses:R:1:momenta:R:3:forces:R:3 KEmax=23.26679191048647 iter=81979 volume=1216.1236359717223 ns_energy=-11.637966331954924 last_walked_iter_clone=81906 energy=-11.638001202293363 stress="0.022583894198021523 2.4938587924090695e-05 -2.181499555974061e-05 2.4938587924090695e-05 0.02266178667195948 -2.2889569485868165e-05 -2.181499555974061e-05 -2.2889569485868165e-05 0.012296480604219163" pbc="T T F"
H        1.40307756       0.81006721      20.00000000        3       1.00000000       0.00000000       0.00000000       0.00000000       0.00000000       0.00000000       0.00000000
H        4.20923268       0.81006721      20.00000000        3       1.00000000       0.00000000       0.00000000       0.00000000       0.00000000       0.00000000       0.00000000
H        0.00000000       3.24026883      20.00000000        3       1.00000000       0.00000000       0.00000000       0.00000000       0.00000000       0.00000000       0.00000000
H        2.80615512       3.24026883      20.00000000        3       1.00000000       0.00000000       0.00000000       0.00000000       0.00000000       0.00000000       0.00000000
H        0.00000000       1.62013441      22.29121606        2       1.00000000       0.00000000       0.00000000       0.00000000       0.00000000       0.00000000       0.00000000
H        2.80615512       1.62013441      22.29121606        2       1.00000000       0.00000000       0.00000000       0.00000000       0.00000000       0.00000000       0.00000000
H        1.40307756       4.05033604      22.29121606        2       1.00000000       0.00000000       0.00000000       0.00000000       0.00000000       0.00000000       0.00000000
H        4.20923268       4.05033604      22.29121606        2       1.00000000       0.00000000       0.00000000       0.00000000       0.00000000       0.00000000       0.00000000
H        0.00000000       0.00000000      24.58243212        1       1.00000000       0.00000000       0.00000000       0.00000000       0.00000000       0.00000000       0.00000000
H        2.80615512       0.00000000      24.58243212        1       1.00000000       0.00000000       0.00000000       0.00000000       0.00000000       0.00000000       0.00000000
H        1.40307756       2.43020162      24.58243212        1       1.00000000       0.00000000       0.00000000       0.00000000       0.00000000       0.00000000       0.00000000
H        4.20923268       2.43020162      24.58243212        1       1.00000000       0.00000000       0.00000000       0.00000000       0.00000000       0.00000000       0.00000000
H        2.79530569       1.61689403      26.81234312        0       1.00000000      -0.00051269       0.00194595      -0.00038909      -0.00122487       0.00368500       0.00319975
H        1.40120241       4.04926951      17.77043160        0       1.00000000      -0.00008070      -0.00138284       0.00017304      -0.00024656       0.00054415       0.00322452
H        4.21723550       4.04690638      26.81220005        0       1.00000000      -0.00211261       0.00315217      -0.00041986       0.00306401      -0.00214283       0.00037076
H        5.61100232       1.61918378      17.77180699        0       1.00000000       0.00184624       0.00359179      -0.00103770       0.00343233       0.00200208      -0.00080012
H        2.80386419       1.61816761      17.77207391        0       1.00000000       0.00047887       0.00285654      -0.00250981      -0.00295417      -0.00681199       0.00563496
H        4.20705835       4.05108371      17.77207126        0       1.00000000       0.00028303       0.00115395      -0.00445906      -0.00080122       0.00328397      -0.00191658
18
Lattice="5.612310241546866 0.0 0.0 0.0 4.860403243099165 0.0 0.0 0.0 44.58243212332868" Properties=species:S:1:pos:R:3:tags:I:1:masses:R:1:momenta:R:3:forces:R:3 KEmax=23.26679191048647 iter=81979 volume=1216.1236359717223 ns_energy=-11.637962628525955 last_walked_iter_clone=81612 energy=-11.638001202293363 stress="0.022583894198021523 2.4938587924090695e-05 -2.181499555974061e-05 2.4938587924090695e-05 0.02266178667195948 -2.2889569485868165e-05 -2.181499555974061e-05 -2.2889569485868165e-05 0.012296480604219163" pbc="T T F"
H        1.40307756       0.81006721      20.00000000        3       1.00000000       0.00000000       0.00000000       0.00000000       0.00000000       0.00000000       0.00000000
H        4.20923268       0.81006721      20.00000000        3       1.00000000       0.00000000       0.00000000       0.00000000       0.00000000       0.00000000       0.00000000
H        0.00000000       3.24026883      20.00000000        3       1.00000000       0.00000000       0.00000000       0.00000000       0.00000000       0.00000000       0.00000000
H        2.80615512       3.24026883      20.00000000        3       1.00000000       0.00000000       0.00000000       0.00000000       0.00000000       0.00000000       0.00000000
H        0.00000000       1.62013441      22.29121606        2       1.00000000       0.00000000       0.00000000       0.00000000       0.00000000       0.00000000       0.00000000
H        2.80615512       1.62013441      22.29121606        2       1.00000000       0.00000000       0.00000000       0.00000000       0.00000000       0.00000000       0.00000000
H        1.40307756       4.05033604      22.29121606        2       1.00000000       0.00000000       0.00000000       0.00000000       0.00000000       0.00000000       0.00000000
H        4.20923268       4.05033604      22.29121606        2       1.00000000       0.00000000       0.00000000       0.00000000       0.00000000       0.00000000       0.00000000
H        0.00000000       0.00000000      24.58243212        1       1.00000000       0.00000000       0.00000000       0.00000000       0.00000000       0.00000000       0.00000000
H        2.80615512       0.00000000      24.58243212        1       1.00000000       0.00000000       0.00000000       0.00000000       0.00000000       0.00000000       0.00000000
H        1.40307756       2.43020162      24.58243212        1       1.00000000       0.00000000       0.00000000       0.00000000       0.00000000       0.00000000       0.00000000
H        4.20923268       2.43020162      24.58243212        1       1.00000000       0.00000000       0.00000000       0.00000000       0.00000000       0.00000000       0.00000000
H        2.79507599       1.62418016      26.80962980        0       1.00000000      -0.00022715      -0.00237188      -0.00066363      -0.00122487       0.00368500       0.00319975
H        1.40391847       4.05085667      17.76939146        0       1.00000000       0.00022551       0.00048340      -0.00164815      -0.00024656       0.00054415       0.00322452
H        4.21529243       4.05319518      26.81154778        0       1.00000000      -0.00081350      -0.00014432      -0.00068590       0.00306401      -0.00214283       0.00037076
H        0.00212822       1.62180664      17.77200691        0       1.00000000      -0.00274658      -0.00076465       0.00284545       0.00343233       0.00200208      -0.00080012
H        2.80904113       1.61824413      17.77150748        0       1.00000000       0.00111744      -0.00408697      -0.00065558      -0.00295417      -0.00681199       0.00563496
H        4.21064194       4.05054567      17.77098054        0       1.00000000      -0.00285742      -0.00121845      -0.00006422      -0.00080122       0.00328397      -0.00191658
18
Lattice="5.612310241546866 0.0 0.0 0.0 4.860403243099165 0.0 0.0 0.0 44.58243212332868" Properties=species:S:1:pos:R:3:tags:I:1:masses:R:1:momenta:R:3:forces:R:3 KEmax=23.26679191048647 iter=81979 volume=1216.1236359717223 ns_energy=-11.63796679074589 last_walked_iter_clone=81897 energy=-11.638001202293363 stress="0.022583894198021523 2.4938587924090695e-05 -2.181499555974061e-05 2.4938587924090695e-05 0.02266178667195948 -2.2889569485868165e-05 -2.181499555974061e-05 -2.2889569485868165e-05 0.012296480604219163" pbc="T T F"
H        1.40307756       0.81006721      20.00000000        3       1.00000000       0.00000000       0.00000000       0.00000000       0.00000000       0.00000000       0.00000000
H        4.20923268       0.81006721      20.00000000        3       1.00000000       0.00000000       0.00000000       0.00000000       0.00000000       0.00000000       0.00000000
H        0.00000000       3.24026883      20.00000000        3       1.00000000       0.00000000       0.00000000       0.00000000       0.00000000       0.00000000       0.00000000
H        2.80615512       3.24026883      20.00000000        3       1.00000000       0.00000000       0.00000000       0.00000000       0.00000000       0.00000000       0.00000000
H        0.00000000       1.62013441      22.29121606        2       1.00000000       0.00000000       0.00000000       0.00000000       0.00000000       0.00000000       0.00000000
H        2.80615512       1.62013441      22.29121606        2       1.00000000       0.00000000       0.00000000       0.00000000       0.00000000       0.00000000       0.00000000
H        1.40307756       4.05033604      22.29121606        2       1.00000000       0.00000000       0.00000000       0.00000000       0.00000000       0.00000000       0.00000000
H        4.20923268       4.05033604      22.29121606        2       1.00000000       0.00000000       0.00000000       0.00000000       0.00000000       0.00000000       0.00000000
H        0.00000000       0.00000000      24.58243212        1       1.00000000       0.00000000       0.00000000       0.00000000       0.00000000       0.00000000       0.00000000
H        2.80615512       0.00000000      24.58243212        1       1.00000000       0.00000000       0.00000000       0.00000000       0.00000000       0.00000000       0.00000000
H        1.40307756       2.43020162      24.58243212        1       1.00000000       0.00000000       0.00000000       0.00000000       0.00000000       0.00000000       0.00000000
H        4.20923268       2.43020162      24.58243212        1       1.00000000       0.00000000       0.00000000       0.00000000       0.00000000       0.00000000       0.00000000
H        2.79728906       1.61782888      26.80951491        0       1.00000000       0.00318933      -0.00163135       0.00152581      -0.00122487       0.00368500       0.00319975
H        1.40242430       4.04967054      17.77111778        0       1.00000000      -0.00045739       0.00059447       0.00021235      -0.00024656       0.00054415       0.00322452
H        4.21971050       4.04888988      26.81142200        0       1.00000000      -0.00036797       0.00056010       0.00036107       0.00306401      -0.00214283       0.00037076
H        5.61142208       1.61956251      17.77226761        0       1.00000000      -0.00348575       0.00560661      -0.00231064       0.00343233       0.00200208      -0.00080012
H        2.80470847       1.62172423      17.77182959        0       1.00000000       0.00191450       0.00241917       0.00064509      -0.00295417      -0.00681199       0.00563496
H        4.20839728       4.05024459      17.77051510        0       1.00000000       0.00163319      -0.00378071      -0.00207074      -0.00080122       0.00328397      -0.00191658
18
Lattice="5.612310241546866 0.0 0.0 0.0 4.860403243099165 0.0 0.0 0.0 44.58243212332868" Properties=species:S:1:pos:R:3:tags:I:1:masses:R:1:momenta:R:3:forces:R:3 KEmax=23.26679191048647 iter=81979 volume=1216.1236359717223 ns_energy=-11.637962961870409 last_walked_iter_clone=81818 energy=-11.638001202293363 stress="0.022583894198021523 2.4938587924090695e-05 -2.181499555974061e-05 2.4938587924090695e-05 0.02266178667195948 -2.2889569485868165e-05 -2.181499555974061e-05 -2.2889569485868165e-05 0.012296480604219163" pbc="T T F"
H        1.40307756       0.81006721      20.00000000        3       1.00000000       0.00000000       0.00000000       0.00000000       0.00000000       0.00000000       0.00000000
H        4.20923268       0.81006721      20.00000000        3       1.00000000       0.00000000       0.00000000       0.00000000       0.00000000       0.00000000       0.00000000
H        0.00000000       3.24026883      20.00000000        3       1.00000000       0.00000000       0.00000000       0.00000000       0.00000000       0.00000000       0.00000000
H        2.80615512       3.24026883      20.00000000        3       1.00000000       0.00000000       0.00000000       0.00000000       0.00000000       0.00000000       0.00000000
H        0.00000000       1.62013441      22.29121606        2       1.00000000       0.00000000       0.00000000       0.00000000       0.00000000       0.00000000       0.00000000
H        2.80615512       1.62013441      22.29121606        2       1.00000000       0.00000000       0.00000000       0.00000000       0.00000000       0.00000000       0.00000000
H        1.40307756       4.05033604      22.29121606        2       1.00000000       0.00000000       0.00000000       0.00000000       0.00000000       0.00000000       0.00000000
H        4.20923268       4.05033604      22.29121606        2       1.00000000       0.00000000       0.00000000       0.00000000       0.00000000       0.00000000       0.00000000
H        0.00000000       0.00000000      24.58243212        1       1.00000000       0.00000000       0.00000000       0.00000000       0.00000000       0.00000000       0.00000000
H        2.80615512       0.00000000      24.58243212        1       1.00000000       0.00000000       0.00000000       0.00000000       0.00000000       0.00000000       0.00000000
H        1.40307756       2.43020162      24.58243212        1       1.00000000       0.00000000       0.00000000       0.00000000       0.00000000       0.00000000       0.00000000
H        4.20923268       2.43020162      24.58243212        1       1.00000000       0.00000000       0.00000000       0.00000000       0.00000000       0.00000000       0.00000000
H        2.79813643       1.62131377      26.81041407        0       1.00000000       0.00075927      -0.00247890       0.00269276      -0.00122487       0.00368500       0.00319975
H        1.40450020       4.04961367      17.77199405        0       1.00000000       0.00029757       0.00054628       0.00051837      -0.00024656       0.00054415       0.00322452
H        4.22120261       4.05222561      26.80805065        0       1.00000000       0.00047289       0.00116923      -0.00127652       0.00306401      -0.00214283       0.00037076
H        0.00281621       1.61957134      17.77258632        0       1.00000000       0.00152045      -0.00209037      -0.00262956       0.00343233       0.00200208      -0.00080012
H        2.80896382       1.61999912      17.77145798        0       1.00000000      -0.00276803       0.00128338      -0.00092656      -0.00295417      -0.00681199       0.00563496
H        4.21290460       4.05107190      17.77175401        0       1.00000000      -0.00051964      -0.00430445       0.00189204      -0.00080122       0.00328397      -0.00191658
18
Lattice="5.612310241546866 0.0 0.0 0.0 4.860403243099165 0.0 0.0 0.0 44.58243212332868" Properties=species:S:1:pos:R:3:tags:I:1:masses:R:1:momenta:R:3:forces:R:3 KEmax=23.26679191048647 iter=81979 volume=1216.1236359717223 ns_energy=-11.637966188429381 last_walked_iter_clone=81839 energy=-11.638001202293363 stress="0.022583894198021523 2.4938587924090695e-05 -2.181499555974061e-05 2.4938587924090695e-05 0.02266178667195948 -2.2889569485868165e-05 -2.181499555974061e-05 -2.2889569485868165e-05 0.012296480604219163" pbc="T T F"
H        1.40307756       0.81006721      20.00000000        3       1.00000000       0.00000000       0.00000000       0.00000000       0.00000000       0.00000000       0.00000000
H        4.20923268       0.81006721      20.00000000        3       1.00000000       0.00000000       0.00000000       0.00000000       0.00000000       0.00000000       0.00000000
H        0.00000000       3.24026883      20.00000000        3       1.00000000       0.00000000       0.00000000       0.00000000       0.00000000       0.00000000       0.00000000
H        2.80615512       3.24026883      20.00000000        3       1.00000000       0.00000000       0.00000000       0.00000000       0.00000000       0.00000000       0.00000000
H        0.00000000       1.62013441      22.29121606        2       1.00000000       0.00000000       0.00000000       0.00000000       0.00000000       0.00000000       0.00000000
H        2.80615512       1.62013441      22.29121606        2       1.00000000       0.00000000       0.00000000       0.00000000       0.00000000       0.00000000       0.00000000
H        1.40307756       4.05033604      22.29121606        2       1.00000000       0.00000000       0.00000000       0.00000000       0.00000000       0.00000000       0.00000000
H        4.20923268       4.05033604      22.29121606        2       1.00000000       0.00000000       0.00000000       0.00000000       0.00000000       0.00000000       0.00000000
H        0.00000000       0.00000000      24.58243212        1       1.00000000       0.00000000       0.00000000       0.00000000       0.00000000       0.00000000       0.00000000
H        2.80615512       0.00000000      24.58243212        1       1.00000000       0.00000000       0.00000000       0.00000000       0.00000000       0.00000000       0.00000000
H        1.40307756       2.43020162      24.58243212        1       1.00000000       0.00000000       0.00000000       0.00000000       0.00000000       0.00000000       0.00000000
H        4.20923268       2.43020162      24.58243212        1       1.00000000       0.00000000       0.00000000       0.00000000       0.00000000       0.00000000       0.00000000
H        2.79603620       1.61951350      26.81114690        0       1.00000000       0.00471304       0.00073315      -0.00502970      -0.00122487       0.00368500       0.00319975
H        1.40125485       4.05079372      17.77093979        0       1.00000000       0.00088338       0.00292089       0.00186637      -0.00024656       0.00054415       0.00322452
H        4.21856368       4.05082881      26.81078257        0       1.00000000      -0.00032252       0.00009773       0.00147109       0.00306401      -0.00214283       0.00037076
H        5.61236626       1.61913673      17.77035343        0       1.00000000      -0.00000903      -0.00121017       0.00131211       0.00343233       0.00200208      -0.00080012
H        2.80707048       1.62094908      17.77165089        0       1.00000000       0.00142271      -0.00209569       0.00036881      -0.00295417      -0.00681199       0.00563496
H        4.20927471       4.05166207      17.77280840        0       1.00000000       0.00324898       0.00138508      -0.00253284      -0.00080122       0.00328397      -0.00191658
18
Lattice="5.612310241546866 0.0 0.0 0.0 4.860403243099165 0.0 0.0 0.0 44.58243212332868" Properties=species:S:1:pos:R:3:tags:I:1:masses:R:1:momenta:R:3:forces:R:3 KEmax=23.26679191048647 iter=81979 volume=1216.1236359717223 ns_energy=-11.637962730201252 last_walked_iter_clone=81703 energy=-11.638001202293363 stress="0.022583894198021523 2.4938587924090695e-05 -2.181499555974061e-05 2.4938587924090695e-05 0.02266178667195948 -2.2889569485868165e-05 -2.181499555974061e-05 -2.2889569485868165e-05 0.012296480604219163" pbc="T T F"
H        1.40307756       0.81006721      20.00000000        3       1.00000000       0.00000000       0.00000000       0.00000000       0.00000000       0.00000000       0.00000000
H        4.20923268       0.81006721      20.00000000        3       1.00000000       0.00000000       0.00000000       0.00000000       0.00000000       0.00000000       0.00000000
H        0.00000000       3.24026883      20.00000000        3       1.00000000       0.00000000       0.00000000       0.00000000       0.00000000       0.00000000       0.00000000
H        2.80615512       3.24026883      20.00000000        3       1.00000000       0.00000000       0.00000000       0.00000000       0.00000000       0.00000000       0.00000000
H        0.00000000       1.62013441      22.29121606        2       1.00000000       0.00000000       0.00000000       0.00000000       0.00000000       0.00000000       0.00000000
H        2.80615512       1.62013441      22.29121606        2       1.00000000       0.00000000       0.00000000       0.00000000       0.00000000       0.00000000       0.00000000
H        1.40307756       4.05033604      22.29121606        2       1.00000000       0.00000000       0.00000000       0.00000000       0.00000000       0.00000000       0.00000000
H        4.20923268       4.05033604      22.29121606        2       1.00000000       0.00000000       0.00000000       0.00000000       0.00000000       0.00000000       0.00000000
H        0.00000000       0.00000000      24.58243212        1       1.00000000       0.00000000       0.00000000       0.00000000       0.00000000       0.00000000       0.00000000
H        2.80615512       0.00000000      24.58243212        1       1.00000000       0.00000000       0.00000000       0.00000000       0.00000000       0.00000000       0.00000000
H        1.40307756       2.43020162      24.58243212        1       1.00000000       0.00000000       0.00000000       0.00000000       0.00000000       0.00000000       0.00000000
H        4.20923268       2.43020162      24.58243212        1       1.00000000       0.00000000       0.00000000       0.00000000       0.00000000       0.00000000       0.00000000
H        2.79591528       1.62153554      26.81205363        0       1.00000000       0.00009236       0.00268280       0.00067083      -0.00122487       0.00368500       0.00319975
H        1.40306346       4.04730081      17.77056423        0       1.00000000      -0.00168123      -0.00309311       0.00064040      -0.00024656       0.00054415       0.00322452
H        4.21820529       4.04861484      26.81046986        0       1.00000000       0.00259351       0.00080554      -0.00138299       0.00306401      -0.00214283       0.00037076
H        0.00084069       1.61909019      17.77133708        0       1.00000000      -0.00126920      -0.00098696       0.00190343       0.00343233       0.00200208      -0.00080012
H        2.80584090       1.61743318      17.77238403        0       1.00000000       0.00056882      -0.00021804      -0.00633801      -0.00295417      -0.00681199       0.00563496
H        4.21002038       4.04982296      17.76985254        0       1.00000000      -0.00119074       0.00076559       0.00151949      -0.00080122       0.00328397      -0.00191658
18
Lattice="5.612310241546866 0.0 0.0 0.0 4.860403243099165 0.0 0.0 0.0 44.58243212332868" Properties=species:S:1:pos:R:3:tags:I:1:masses:R:1:momenta:R:3:forces:R:3 KEmax=23.26679191048647 iter=81979 volume=1216.1236359717223 ns_energy=-11.63796237282874 last_walked_iter_clone=81838 energy=-11.638001202293363 stress="0.022583894198021523 2.4938587924090695e-05 -2.181499555974061e-05 2.4938587924090695e-05 0.02266178667195948 -2.2889569485868165e-05 -2.181499555974061e-05 -2.2889569485868165e-05 0.012296480604219163" pbc="T T F"
H        1.40307756       0.81006721      20.00000000        3       1.00000000       0.00000000       0.00000000       0.00000000       0.00000000       0.00000000       0.00000000
H        4.20923268       0.81006721      20.00000000        3       1.00000000       0.00000000       0.00000000       0.00000000       0.00000000       0.00000000       0.00000000
H        0.00000000       3.24026883      20.00000000        3       1.00000000       0.00000000       0.00000000       0.00000000       0.00000000       0.00000000       0.00000000
H        2.80615512       3.24026883      20.00000000        3       1.00000000       0.00000000       0.00000000       0.00000000       0.00000000       0.00000000       0.00000000
H        0.00000000       1.62013441      22.29121606        2       1.00000000       0.00000000       0.00000000       0.00000000       0.00000000       0.00000000       0.00000000
H        2.80615512       1.62013441      22.29121606        2       1.00000000       0.00000000       0.00000000       0.00000000       0.00000000       0.00000000       0.00000000
H        1.40307756       4.05033604      22.29121606        2       1.00000000       0.00000000       0.00000000       0.00000000       0.00000000       0.00000000       0.00000000
H        4.20923268       4.05033604      22.29121606        2       1.00000000       0.00000000       0.00000000       0.00000000       0.00000000       0.00000000       0.00000000
H        0.00000000       0.00000000      24.58243212        1       1.00000000       0.00000000       0.00000000       0.00000000       0.00000000       0.00000000       0.00000000
H        2.80615512       0.00000000      24.58243212        1       1.00000000       0.00000000       0.00000000       0.00000000       0.00000000       0.00000000       0.00000000
H        1.40307756       2.43020162      24.58243212        1       1.00000000       0.00000000       0.00000000       0.00000000       0.00000000       0.00000000       0.00000000
H        4.20923268       2.43020162      24.58243212        1       1.00000000       0.00000000       0.00000000       0.00000000       0.00000000       0.00000000       0.00000000
H        2.80002218       1.62077606      26.81195821        0       1.00000000      -0.00115333       0.00051346      -0.00165984      -0.00122487       0.00368500       0.00319975
H        1.40371336       4.04863363      17.77155885        0       1.00000000       0.00277271       0.00087245      -0.00315345      -0.00024656       0.00054415       0.00322452
H        4.21821373       4.05115831      26.81169178        0       1.00000000      -0.00168379       0.00301532       0.00284022       0.00306401      -0.00214283       0.00037076