21
Lattice="5.612310241546866 0.0 0.0 0.0 4.860403243099165 0.0 0.0 0.0 24.582432123328676" Properties=species:S:1:pos:R:3:tags:I:1:masses:R:1:momenta:R:3:forces:R:3 KEmax=27.14459056223422 iter=185894 volume=670.5618179858607 ns_energy=-14.09023304579782 last_walked_iter_clone=185229 energy=-14.090233046309091 stress="0.021482875459988282 -9.473958769047456e-08 1.7559160976518343e-07 -9.473958769047456e-08 0.02154248012329483 5.794806519413537e-08 1.7559160976518343e-07 5.794806519413537e-08 0.010642340796447373" pbc="T T F"
H        1.40307756       0.81006721      10.00000000        3       1.00000000       0.00000000       0.00000000       0.00000000       0.00000000       0.00000000       0.00000000
H        4.20923268       0.81006721      10.00000000        3       1.00000000       0.00000000       0.00000000       0.00000000       0.00000000       0.00000000       0.00000000
H        0.00000000       3.24026883      10.00000000        3       1.00000000       0.00000000       0.00000000       0.00000000       0.00000000       0.00000000       0.00000000
H        2.80615512       3.24026883      10.00000000        3       1.00000000       0.00000000       0.00000000       0.00000000       0.00000000       0.00000000       0.00000000
H        0.00000000       1.62013441      12.29121606        2       1.00000000       0.00000000       0.00000000       0.00000000       0.00000000       0.00000000       0.00000000
H        2.80615512       1.62013441      12.29121606        2       1.00000000       0.00000000       0.00000000       0.00000000       0.00000000       0.00000000       0.00000000
H        1.40307756       4.05033604      12.29121606        2       1.00000000       0.00000000       0.00000000       0.00000000       0.00000000       0.00000000       0.00000000
H        4.20923268       4.05033604      12.29121606        2       1.00000000       0.00000000       0.00000000       0.00000000       0.00000000       0.00000000       0.00000000
H        0.00000000       0.00000000      14.58243212        1       1.00000000       0.00000000       0.00000000       0.00000000       0.00000000       0.00000000       0.00000000
H        2.80615512       0.00000000      14.58243212        1       1.00000000       0.00000000       0.00000000       0.00000000       0.00000000       0.00000000       0.00000000
H        1.40307756       2.43020162      14.58243212        1       1.00000000       0.00000000       0.00000000       0.00000000       0.00000000       0.00000000       0.00000000
H        4.20923268       2.43020162      14.58243212        1       1.00000000       0.00000000       0.00000000       0.00000000       0.00000000       0.00000000       0.00000000
H        1.41038301       4.05465180      16.79643591        0       1.00000000      -0.00000759       0.00000021       0.00000481      -0.00001521      -0.00000400       0.00000378
H        4.20192648       4.05465281      16.79643747        0       1.00000000       0.00000282      -0.00000665      -0.00000453       0.00000631      -0.00000765       0.00000272
H       -0.00000549       1.62013637       7.77136573        0       1.00000000      -0.00001068       0.00000538       0.00000838      -0.00000427       0.00000492      -0.00000638
H        0.00000718       3.23911819      19.01550777        0       1.00000000      -0.00000074       0.00001041      -0.00000312      -0.00000411       0.00000685       0.00001668
H        2.80615317       1.62013434       7.77137073        0       1.00000000      -0.00000824      -0.00001003      -0.00000399       0.00000670       0.00000914      -0.00001471
H        2.80614891       1.62946172      16.83224413        0       1.00000000      -0.00001720       0.00000513       0.00000678       0.00000428       0.00000546      -0.00000695
H        1.40307270       4.05033414       7.77137075        0       1.00000000      -0.00000233       0.00000172       0.00000446      -0.00000298      -0.00001557      -0.00000079
H       -0.00000419       1.60387618      16.80115227        0       1.00000000       0.00000396       0.00000320      -0.00000171      -0.00000116      -0.00001040      -0.00001172
H        4.20922764       4.05033235       7.77137224        0       1.00000000       0.00000745       0.00000362       0.00000425       0.00001082       0.00000493       0.00000568
21
Lattice="5.612310241546866 0.0 0.0 0.0 4.860403243099165 0.0 0.0 0.0 24.582432123328676" Properties=species:S:1:pos:R:3:tags:I:1:masses:R:1:momenta:R:3:forces:R:3 KEmax=27.14459056223422 iter=185894 volume=670.5618179858607 ns_energy=-14.090233045798106 last_walked_iter_clone=185848 energy=-14.090233046309091 stress="0.021482875459988282 -9.473958769047456e-08 1.7559160976518343e-07 -9.473958769047456e-08 0.02154248012329483 5.794806519413537e-08 1.7559160976518343e-07 5.794806519413537e-08 0.010642340796447373" pbc="T T F"
H        1.40307756       0.81006721      10.00000000        3       1.00000000       0.00000000       0.00000000       0.00000000       0.00000000       0.00000000       0.00000000
H        4.20923268       0.81006721      10.00000000        3       1.00000000       0.00000000       0.00000000       0.00000000       0.00000000       0.00000000       0.00000000
H        0.00000000       3.24026883      10.00000000        3       1.00000000       0.00000000       0.00000000       0.00000000       0.00000000       0.00000000       0.00000000
H        2.80615512       3.24026883      10.00000000        3       1.00000000       0.00000000       0.00000000       0.00000000       0.00000000       0.00000000       0.00000000
H        0.00000000       1.62013441      12.29121606        2       1.00000000       0.00000000       0.00000000       0.00000000       0.00000000       0.00000000       0.00000000
H        2.80615512       1.62013441      12.29121606        2       1.00000000       0.00000000       0.00000000       0.00000000       0.00000000       0.00000000       0.00000000
H        1.40307756       4.05033604      12.29121606        2       1.00000000       0.00000000       0.00000000       0.00000000       0.00000000       0.00000000       0.00000000
H        4.20923268       4.05033604      12.29121606        2       1.00000000       0.00000000       0.00000000       0.00000000       0.00000000       0.00000000       0.00000000
H        0.00000000       0.00000000      14.58243212        1       1.00000000       0.00000000       0.00000000       0.00000000       0.00000000       0.00000000       0.00000000
H        2.80615512       0.00000000      14.58243212        1       1.00000000       0.00000000       0.00000000       0.00000000       0.00000000       0.00000000       0.00000000
H        1.40307756       2.43020162      14.58243212        1       1.00000000       0.00000000       0.00000000       0.00000000       0.00000000       0.00000000       0.00000000
H        4.20923268       2.43020162      14.58243212        1       1.00000000       0.00000000       0.00000000       0.00000000       0.00000000       0.00000000       0.00000000
H        1.41038312       4.05465007      16.79642559        0       1.00000000       0.00000306      -0.00000262       0.00000704      -0.00001521      -0.00000400       0.00000378
H        4.20192246       4.05464849      16.79643499        0       1.00000000       0.00000645      -0.00000088      -0.00000378       0.00000631      -0.00000765       0.00000272
H        5.61231264       1.62014130       7.77136440        0       1.00000000       0.00000313      -0.00000162       0.00000503      -0.00000427       0.00000492      -0.00000638
H       -0.00000501       3.23913027      19.01550318        0       1.00000000      -0.00000347      -0.00000119      -0.00000094      -0.00000411       0.00000685       0.00001668
H        2.80615974       1.62013734       7.77137784        0       1.00000000       0.00000239       0.00000316       0.00001412       0.00000670       0.00000914      -0.00001471
H        2.80615703       1.62945756      16.83224206        0       1.00000000       0.00000293       0.00000248       0.00000111       0.00000428       0.00000546      -0.00000695
H        1.40307788       4.05034263       7.77136588        0       1.00000000      -0.00000086      -0.00000176      -0.00000516      -0.00000298      -0.00001557      -0.00000079
H        5.61230801       1.60387188      16.80116059        0       1.00000000      -0.00000766      -0.00000578       0.00000055      -0.00000116      -0.00001040      -0.00001172
H        4.20923078       4.05034435       7.77136554        0       1.00000000      -0.00000692      -0.00000594      -0.00000023       0.00001082       0.00000493       0.00000568
21
Lattice="5.612310241546866 0.0 0.0 0.0 4.860403243099165 0.0 0.0 0.0 24.582432123328676" Properties=species:S:1:pos:R:3:tags:I:1:masses:R:1:momenta:R:3:forces:R:3 KEmax=27.14459056223422 iter=185894 volume=670.5618179858607 ns_energy=-14.090233045839124 last_walked_iter_clone=185598 energy=-14.090233046309091 stress="0.021482875459988282 -9.473958769047456e-08 1.7559160976518343e-07 -9.473958769047456e-08 0.02154248012329483 5.794806519413537e-08 1.7559160976518343e-07 5.794806519413537e-08 0.010642340796447373" pbc="T T F"
H        1.40307756       0.81006721      10.00000000        3       1.00000000       0.00000000       0.00000000       0.00000000       0.00000000       0.00000000       0.00000000
H        4.20923268       0.81006721      10.00000000        3       1.00000000       0.00000000       0.00000000       0.00000000       0.00000000       0.00000000       0.00000000
H        0.00000000       3.24026883      10.00000000        3       1.00000000       0.00000000       0.00000000       0.00000000       0.00000000       0.00000000       0.00000000
H        2.80615512       3.24026883      10.00000000        3       1.00000000       0.00000000       0.00000000       0.00000000       0.00000000       0.00000000       0.00000000
H        0.00000000       1.62013441      12.29121606        2       1.00000000       0.00000000       0.00000000       0.00000000       0.00000000       0.00000000       0.00000000
H        2.80615512       1.62013441      12.29121606        2       1.00000000       0.00000000       0.00000000       0.00000000       0.00000000       0.00000000       0.00000000
H        1.40307756       4.05033604      12.29121606        2       1.00000000       0.00000000       0.00000000       0.00000000       0.00000000       0.00000000       0.00000000
H        4.20923268       4.05033604      12.29121606        2       1.00000000       0.00000000       0.00000000       0.00000000       0.00000000       0.00000000       0.00000000
H        0.00000000       0.00000000      14.58243212        1       1.00000000       0.00000000       0.00000000       0.00000000       0.00000000       0.00000000       0.00000000
H        2.80615512       0.00000000      14.58243212        1       1.00000000       0.00000000       0.00000000       0.00000000       0.00000000       0.00000000       0.00000000
H        1.40307756       2.43020162      14.58243212        1       1.00000000       0.00000000       0.00000000       0.00000000       0.00000000       0.00000000       0.00000000
H        4.20923268       2.43020162      14.58243212        1       1.00000000       0.00000000       0.00000000       0.00000000       0.00000000       0.00000000       0.00000000
H        1.41038694       4.05465144      16.79643501        0       1.00000000      -0.00001130       0.00000197       0.00000105      -0.00001521      -0.00000400       0.00000378
H        4.20193067       4.05465093      16.79643562        0       1.00000000      -0.00001111      -0.00000052      -0.00000122       0.00000631      -0.00000765       0.00000272
H       -0.00000204       1.62012999       7.77136539        0       1.00000000      -0.00000000      -0.00000078       0.00000228      -0.00000427       0.00000492      -0.00000638
H        0.00000966       3.23912216      19.01550380        0       1.00000000      -0.00000082      -0.00000272      -0.00000639      -0.00000411       0.00000685       0.00001668
H        2.80615844       1.62012543       7.77136476        0       1.00000000      -0.00000728       0.00000136      -0.00000570       0.00000670       0.00000914      -0.00001471
H        2.80616008       1.62945656      16.83223848        0       1.00000000       0.00000390       0.00000372       0.00000567       0.00000428       0.00000546      -0.00000695
H        1.40307537       4.05033526       7.77136899        0       1.00000000       0.00000289       0.00000926       0.00000594      -0.00000298      -0.00001557      -0.00000079
H        0.00000651       1.60388191      16.80115272        0       1.00000000      -0.00000953      -0.00000559      -0.00000098      -0.00000116      -0.00001040      -0.00001172
H        4.20923011       4.05033061       7.77136041        0       1.00000000       0.00001314       0.00000109       0.00000196       0.00001082       0.00000493       0.00000568
21
Lattice="5.612310241546866 0.0 0.0 0.0 4.860403243099165 0.0 0.0 0.0 24.582432123328676" Properties=species:S:1:pos:R:3:tags:I:1:masses:R:1:momenta:R:3:forces:R:3 KEmax=27.14459056223422 iter=185894 volume=670.5618179858607 ns_energy=-14.09023304585819 last_walked_iter_clone=185799 energy=-14.090233046309091 stress="0.021482875459988282 -9.473958769047456e-08 1.7559160976518343e-07 -9.473958769047456e-08 0.02154248012329483 5.794806519413537e-08 1.7559160976518343e-07 5.794806519413537e-08 0.010642340796447373" pbc="T T F"
H        1.40307756       0.81006721      10.00000000        3       1.00000000       0.00000000       0.00000000       0.00000000       0.00000000       0.00000000       0.00000000
H        4.20923268       0.81006721      10.00000000        3       1.00000000       0.00000000       0.00000000       0.00000000       0.00000000       0.00000000       0.00000000
H        0.00000000       3.24026883      10.00000000        3       1.00000000       0.00000000       0.00000000       0.00000000       0.00000000       0.00000000       0.00000000
H        2.80615512       3.24026883      10.00000000        3       1.00000000       0.00000000       0.00000000       0.00000000       0.00000000       0.00000000       0.00000000
H        0.00000000       1.62013441      12.29121606        2       1.00000000       0.00000000       0.00000000       0.00000000       0.00000000       0.00000000       0.00000000
H        2.80615512       1.62013441      12.29121606        2       1.00000000       0.00000000       0.00000000       0.00000000       0.00000000       0.00000000       0.00000000
H        1.40307756       4.05033604      12.29121606        2       1.00000000       0.00000000       0.00000000       0.00000000       0.00000000       0.00000000       0.00000000
H        4.20923268       4.05033604      12.29121606        2       1.00000000       0.00000000       0.00000000       0.00000000       0.00000000       0.00000000       0.00000000
H        0.00000000       0.00000000      14.58243212        1       1.00000000       0.00000000       0.00000000       0.00000000       0.00000000       0.00000000       0.00000000
H        2.80615512       0.00000000      14.58243212        1       1.00000000       0.00000000       0.00000000       0.00000000       0.00000000       0.00000000       0.00000000
H        1.40307756       2.43020162      14.58243212        1       1.00000000       0.00000000       0.00000000       0.00000000       0.00000000       0.00000000       0.00000000
H        4.20923268       2.43020162      14.58243212        1       1.00000000       0.00000000       0.00000000       0.00000000       0.00000000       0.00000000       0.00000000
H        1.41038074       4.05464580      16.79643480        0       1.00000000      -0.00000010      -0.00000770       0.00000492      -0.00001521      -0.00000400       0.00000378
H        4.20193398       4.05465069      16.79643248        0       1.00000000      -0.00000105       0.00000333       0.00000625       0.00000631      -0.00000765       0.00000272
H        5.61230611       1.62013473       7.77137160        0       1.00000000      -0.00000020      -0.00000022       0.00001046      -0.00000427       0.00000492      -0.00000638
H        5.61231132       3.23912817      19.01550757        0       1.00000000       0.00001293      -0.00000171      -0.00000112      -0.00000411       0.00000685       0.00001668
H        2.80614722       1.62013373       7.77136762        0       1.00000000      -0.00000158      -0.00000331       0.00000189       0.00000670       0.00000914      -0.00001471
H        2.80616507       1.62945583      16.83224368        0       1.00000000      -0.00000484      -0.00000873       0.00000358       0.00000428       0.00000546      -0.00000695
H        1.40307821       4.05033463       7.77137229        0       1.00000000       0.00000535      -0.00000834       0.00000477      -0.00000298      -0.00001557      -0.00000079
H        0.00000648       1.60387823      16.80115223        0       1.00000000       0.00000684       0.00000094       0.00000043      -0.00000116      -0.00001040      -0.00001172
H        4.20923131       4.05032845       7.77137055        0       1.00000000       0.00000133      -0.00000437      -0.00000507       0.00001082       0.00000493       0.00000568
21
Lattice="5.612310241546866 0.0 0.0 0.0 4.860403243099165 0.0 0.0 0.0 24.582432123328676" Properties=species:S:1:pos:R:3:tags:I:1:masses:R:1:momenta:R:3:forces:R:3 KEmax=27.14459056223422 iter=185894 volume=670.5618179858607 ns_energy=-14.090233045795735 last_walked_iter_clone=185613 energy=-14.090233046309091 stress="0.021482875459988282 -9.473958769047456e-08 1.7559160976518343e-07 -9.473958769047456e-08 0.02154248012329483 5.794806519413537e-08 1.7559160976518343e-07 5.794806519413537e-08 0.010642340796447373" pbc="T T F"
H        1.40307756       0.81006721      10.00000000        3       1.00000000       0.00000000       0.00000000       0.00000000       0.00000000       0.00000000       0.00000000
H        4.20923268       0.81006721      10.00000000        3       1.00000000       0.00000000       0.00000000       0.00000000       0.00000000       0.00000000       0.00000000
H        0.00000000       3.24026883      10.00000000        3       1.00000000       0.00000000       0.00000000       0.00000000       0.00000000       0.00000000       0.00000000
H        2.80615512       3.24026883      10.00000000        3       1.00000000       0.00000000       0.00000000       0.00000000       0.00000000       0.00000000       0.00000000
H        0.00000000       1.62013441      12.29121606        2       1.00000000       0.00000000       0.00000000       0.00000000       0.00000000       0.00000000       0.00000000
H        2.80615512       1.62013441      12.29121606        2       1.00000000       0.00000000       0.00000000       0.00000000       0.00000000       0.00000000       0.00000000
H        1.40307756       4.05033604      12.29121606        2       1.00000000       0.00000000       0.00000000       0.00000000       0.00000000       0.00000000       0.00000000
H        4.20923268       4.05033604      12.29121606        2       1.00000000       0.00000000       0.00000000       0.00000000       0.00000000       0.00000000       0.00000000
H        0.00000000       0.00000000      14.58243212        1       1.00000000       0.00000000       0.00000000       0.00000000       0.00000000       0.00000000       0.00000000
H        2.80615512       0.00000000      14.58243212        1       1.00000000       0.00000000       0.00000000       0.00000000       0.00000000       0.00000000       0.00000000
H        1.40307756       2.43020162      14.58243212        1       1.00000000       0.00000000       0.00000000       0.00000000       0.00000000       0.00000000       0.00000000
H        4.20923268       2.43020162      14.58243212        1       1.00000000       0.00000000       0.00000000       0.00000000       0.00000000       0.00000000       0.00000000
H        1.41038361       4.05464668      16.79642999        0       1.00000000      -0.00000036       0.00000895      -0.00000636      -0.00001521      -0.00000400       0.00000378
H        4.20193055       4.05464749      16.79643716        0       1.00000000      -0.00001063      -0.00000038       0.00000577       0.00000631      -0.00000765       0.00000272
H        5.61231649       1.62013872       7.77136698        0       1.00000000       0.00001036      -0.00000339      -0.00000344      -0.00000427       0.00000492      -0.00000638
H        5.61231232       3.23912900      19.01550632        0       1.00000000       0.00000730       0.00000307       0.00000040      -0.00000411       0.00000685       0.00001668
H        2.80616028       1.62013661       7.77136422        0       1.00000000       0.00000745       0.00000503       0.00000649       0.00000670       0.00000914      -0.00001471
H        2.80615332       1.62945570      16.83224163        0       1.00000000      -0.00000759      -0.00000749      -0.00001432       0.00000428       0.00000546      -0.00000695
H        1.40308036       4.05034195       7.77136664        0       1.00000000       0.00000692       0.00000111       0.00001085      -0.00000298      -0.00001557      -0.00000079
H       -0.00000365       1.60388105      16.80115873        0       1.00000000       0.00000638      -0.00000987       0.00000157      -0.00000116      -0.00001040      -0.00001172
H        4.20923243       4.05033886       7.77136845        0       1.00000000       0.00000042      -0.00000353       0.00000653       0.00001082       0.00000493       0.00000568
21
Lattice="5.612310241546866 0.0 0.0 0.0 4.860403243099165 0.0 0.0 0.0 24.582432123328676" Properties=species:S:1:pos:R:3:tags:I:1:masses:R:1:momenta:R:3:forces:R:3 KEmax=27.14459056223422 iter=185894 volume=670.5618179858607 ns_energy=-14.090233045804974 last_walked_iter_clone=185820 energy=-14.090233046309091 stress="0.021482875459988282 -9.473958769047456e-08 1.7559160976518343e-07 -9.473958769047456e-08 0.02154248012329483 5.794806519413537e-08 1.7559160976518343e-07 5.794806519413537e-08 0.010642340796447373" pbc="T T F"
H        1.40307756       0.81006721      10.00000000        3       1.00000000       0.00000000       0.00000000       0.00000000       0.00000000       0.00000000       0.00000000
H        4.20923268       0.81006721      10.00000000        3       1.00000000       0.00000000       0.00000000       0.00000000       0.00000000       0.00000000       0.00000000
H        0.00000000       3.24026883      10.00000000        3       1.00000000       0.00000000       0.00000000       0.00000000       0.00000000       0.00000000       0.00000000
H        2.80615512       3.24026883      10.00000000        3       1.00000000       0.00000000       0.00000000       0.00000000       0.00000000       0.00000000       0.00000000
H        0.00000000       1.62013441      12.29121606        2       1.00000000       0.00000000       0.00000000       0.00000000       0.00000000       0.00000000       0.00000000
H        2.80615512       1.62013441      12.29121606        2       1.00000000       0.00000000       0.00000000       0.00000000       0.00000000       0.00000000       0.00000000
H        1.40307756       4.05033604      12.29121606        2       1.00000000       0.00000000       0.00000000       0.00000000       0.00000000       0.00000000       0.00000000
H        4.20923268       4.05033604      12.29121606        2       1.00000000       0.00000000       0.00000000       0.00000000       0.00000000       0.00000000       0.00000000
H        0.00000000       0.00000000      14.58243212        1       1.00000000       0.00000000       0.00000000       0.00000000       0.00000000       0.00000000       0.00000000
H        2.80615512       0.00000000      14.58243212        1       1.00000000       0.00000000       0.00000000       0.00000000       0.00000000       0.00000000       0.00000000
H        1.40307756       2.43020162      14.58243212        1       1.00000000       0.00000000       0.00000000       0.00000000       0.00000000       0.00000000       0.00000000
H        4.20923268       2.43020162      14.58243212        1       1.00000000       0.00000000       0.00000000       0.00000000       0.00000000       0.00000000       0.00000000
H        1.41038331       4.05464784      16.79643048        0       1.00000000      -0.00000074       0.00000232      -0.00000905      -0.00001521      -0.00000400       0.00000378
H        4.20192882       4.05465092      16.79643673        0       1.00000000       0.00000362       0.00000693      -0.00000269       0.00000631      -0.00000765       0.00000272
H        5.61231893       1.62013617       7.77136897        0       1.00000000       0.00000511       0.00000154       0.00000085      -0.00000427       0.00000492      -0.00000638
H        0.00002008       3.23913434      19.01551139        0       1.00000000       0.00000215      -0.00000853       0.00000561      -0.00000411       0.00000685       0.00001668
H        2.80615650       1.62013513       7.77136824        0       1.00000000      -0.00000027       0.00000689       0.00000084       0.00000670       0.00000914      -0.00001471
H        2.80614973       1.62945627      16.83224034        0       1.00000000       0.00000559       0.00000490      -0.00001038       0.00000428       0.00000546      -0.00000695
H        1.40308203       4.05033770       7.77136407        0       1.00000000       0.00000860       0.00000800       0.00001154      -0.00000298      -0.00001557      -0.00000079
H       -0.00000732       1.60387668      16.80115363        0       1.00000000      -0.00000370       0.00000002      -0.00000470      -0.00000116      -0.00001040      -0.00001172
H        4.20923316       4.05033788       7.77137590        0       1.00000000       0.00000306      -0.00000183      -0.00000007       0.00001082       0.00000493       0.00000568
21
Lattice="5.612310241546866 0.0 0.0 0.0 4.860403243099165 0.0 0.0 0.0 24.582432123328676" Properties=species:S:1:pos:R:3:tags:I:1:masses:R:1:momenta:R:3:forces:R:3 KEmax=27.14459056223422 iter=185894 volume=670.5618179858607 ns_energy=-14.090233045805755 last_walked_iter_clone=185825 energy=-14.090233046309091 stress="0.021482875459988282 -9.473958769047456e-08 1.7559160976518343e-07 -9.473958769047456e-08 0.02154248012329483 5.794806519413537e-08 1.7559160976518343e-07 5.794806519413537e-08 0.010642340796447373" pbc="T T F"
H        1.40307756       0.81006721      10.00000000        3       1.00000000       0.00000000       0.00000000       0.00000000       0.00000000       0.00000000       0.00000000
H        4.20923268       0.81006721      10.00000000        3       1.00000000       0.00000000       0.00000000       0.00000000       0.00000000       0.00000000       0.00000000
H        0.00000000       3.24026883      10.00000000        3       1.00000000       0.00000000       0.00000000       0.00000000       0.00000000       0.00000000       0.00000000
H        2.80615512       3.24026883      10.00000000        3       1.00000000       0.00000000       0.00000000       0.00000000       0.00000000       0.00000000       0.00000000
H        0.00000000       1.62013441      12.29121606        2       1.00000000       0.00000000       0.00000000       0.00000000       0.00000000       0.00000000       0.00000000
H        2.80615512       1.62013441      12.29121606        2       1.00000000       0.00000000       0.00000000       0.00000000       0.00000000       0.00000000       0.00000000
H        1.40307756       4.05033604      12.29121606        2       1.00000000       0.00000000       0.00000000       0.00000000       0.00000000       0.00000000       0.00000000
H        4.20923268       4.05033604      12.29121606        2       1.00000000       0.00000000       0.00000000       0.00000000       0.00000000       0.00000000       0.00000000
H        0.00000000       0.00000000      14.58243212        1       1.00000000       0.00000000       0.00000000       0.00000000       0.00000000       0.00000000       0.00000000
H        2.80615512       0.00000000      14.58243212        1       1.00000000       0.00000000       0.00000000       0.00000000       0.00000000       0.00000000       0.00000000
H        1.40307756       2.43020162      14.58243212        1       1.00000000       0.00000000       0.00000000       0.00000000       0.00000000       0.00000000       0.00000000
H        4.20923268       2.43020162      14.58243212        1       1.00000000       0.00000000       0.00000000       0.00000000       0.00000000       0.00000000       0.00000000
H        1.41038487       4.05464596      16.79643406        0       1.00000000       0.00001272       0.00000328       0.00000227      -0.00001521      -0.00000400       0.00000378
H        4.20192757       4.05464477      16.79643285        0       1.00000000       0.00000658       0.00000801      -0.00000564       0.00000631      -0.00000765       0.00000272
H        5.61230562       1.62013936       7.77136900        0       1.00000000      -0.00000030       0.00000545       0.00000285      -0.00000427       0.00000492      -0.00000638
H        5.61230363       3.23915190      19.01550700        0       1.00000000       0.00000039       0.00000924       0.00000472      -0.00000411       0.00000685       0.00001668
H        2.80614648       1.62013395       7.77137060        0       1.00000000       0.00000655      -0.00000578       0.00001134       0.00000670       0.00000914      -0.00001471
H        2.80615649       1.62946008      16.83224038        0       1.00000000       0.00000662       0.00000326       0.00000694       0.00000428       0.00000546      -0.00000695