21
Lattice="5.612310241546866 0.0 0.0 0.0 4.860403243099165 0.0 0.0 0.0 24.582432123328676" Properties=species:S:1:pos:R:3:tags:I:1:masses:R:1:momenta:R:3:forces:R:3 KEmax=27.14459056223422 iter=239999 volume=670.5618179858607 ns_energy=-14.09023304667219 last_walked_iter_clone=239550 energy=-14.090233046681583 stress="0.02148301297685913 -5.9648975943466966e-09 1.3076121221167272e-08 -5.9648975943466966e-09 0.021542543248049526 -8.407774094406332e-09 1.3076121221167272e-08 -8.407774094406332e-09 0.01064265107638634" pbc="T T F"
H        1.40307756       0.81006721      10.00000000        3       1.00000000       0.00000000       0.00000000       0.00000000       0.00000000       0.00000000       0.00000000
H        4.20923268       0.81006721      10.00000000        3       1.00000000       0.00000000       0.00000000       0.00000000       0.00000000       0.00000000       0.00000000
H        0.00000000       3.24026883      10.00000000        3       1.00000000       0.00000000       0.00000000       0.00000000       0.00000000       0.00000000       0.00000000
H        2.80615512       3.24026883      10.00000000        3       1.00000000       0.00000000       0.00000000       0.00000000       0.00000000       0.00000000       0.00000000
H        0.00000000       1.62013441      12.29121606        2       1.00000000       0.00000000       0.00000000       0.00000000       0.00000000       0.00000000       0.00000000
H        2.80615512       1.62013441      12.29121606        2       1.00000000       0.00000000       0.00000000       0.00000000       0.00000000       0.00000000       0.00000000
H        1.40307756       4.05033604      12.29121606        2       1.00000000       0.00000000       0.00000000       0.00000000       0.00000000       0.00000000       0.00000000
H        4.20923268       4.05033604      12.29121606        2       1.00000000       0.00000000       0.00000000       0.00000000       0.00000000       0.00000000       0.00000000
H        0.00000000       0.00000000      14.58243212        1       1.00000000       0.00000000       0.00000000       0.00000000       0.00000000       0.00000000       0.00000000
H        2.80615512       0.00000000      14.58243212        1       1.00000000       0.00000000       0.00000000       0.00000000       0.00000000       0.00000000       0.00000000
H        1.40307756       2.43020162      14.58243212        1       1.00000000       0.00000000       0.00000000       0.00000000       0.00000000       0.00000000       0.00000000
H        4.20923268       2.43020162      14.58243212        1       1.00000000       0.00000000       0.00000000       0.00000000       0.00000000       0.00000000       0.00000000
H        1.41038108       4.05464986      16.79643399        0       1.00000000       0.00000078      -0.00000120      -0.00000119      -0.00000058      -0.00000141       0.00000165
H        4.20192807       4.05465024      16.79643331        0       1.00000000      -0.00000070       0.00000093      -0.00000081       0.00000094      -0.00000128       0.00000443
H        5.61231058       1.62013338       7.77136784        0       1.00000000      -0.00000009       0.00000009       0.00000193      -0.00000042      -0.00000104      -0.00000257
H       -0.00000140       3.23912921      19.01550990        0       1.00000000      -0.00000153       0.00000056       0.00000063      -0.00000039       0.00000042      -0.00000344
H        2.80615541       1.62013368       7.77136683        0       1.00000000       0.00000030       0.00000021      -0.00000024       0.00000119      -0.00000062       0.00000122
H        2.80615515       1.62945829      16.83224396        0       1.00000000       0.00000111       0.00000091      -0.00000028      -0.00000255       0.00000073      -0.00000070
H        1.40307823       4.05033528       7.77136686        0       1.00000000       0.00000034       0.00000024      -0.00000097      -0.00000210       0.00000016       0.00000317
H        5.61230924       1.60387873      16.80115750        0       1.00000000      -0.00000119       0.00000166      -0.00000026       0.00000179       0.00000265      -0.00000043
H        4.20923310       4.05033562       7.77136776        0       1.00000000       0.00000087      -0.00000136      -0.00000024       0.00000192       0.00000014       0.00000043
21
Lattice="5.612310241546866 0.0 0.0 0.0 4.860403243099165 0.0 0.0 0.0 24.582432123328676" Properties=species:S:1:pos:R:3:tags:I:1:masses:R:1:momenta:R:3:forces:R:3 KEmax=27.14459056223422 iter=239999 volume=670.5618179858607 ns_energy=-14.090233046671655 last_walked_iter_clone=239936 energy=-14.090233046681583 stress="0.02148301297685913 -5.9648975943466966e-09 1.3076121221167272e-08 -5.9648975943466966e-09 0.021542543248049526 -8.407774094406332e-09 1.3076121221167272e-08 -8.407774094406332e-09 0.01064265107638634" pbc="T T F"
H        1.40307756       0.81006721      10.00000000        3       1.00000000       0.00000000       0.00000000       0.00000000       0.00000000       0.00000000       0.00000000
H        4.20923268       0.81006721      10.00000000        3       1.00000000       0.00000000       0.00000000       0.00000000       0.00000000       0.00000000       0.00000000
H        0.00000000       3.24026883      10.00000000        3       1.00000000       0.00000000       0.00000000       0.00000000       0.00000000       0.00000000       0.00000000
H        2.80615512       3.24026883      10.00000000        3       1.00000000       0.00000000       0.00000000       0.00000000       0.00000000       0.00000000       0.00000000
H        0.00000000       1.62013441      12.29121606        2       1.00000000       0.00000000       0.00000000       0.00000000       0.00000000       0.00000000       0.00000000
H        2.80615512       1.62013441      12.29121606        2       1.00000000       0.00000000       0.00000000       0.00000000       0.00000000       0.00000000       0.00000000
H        1.40307756       4.05033604      12.29121606        2       1.00000000       0.00000000       0.00000000       0.00000000       0.00000000       0.00000000       0.00000000
H        4.20923268       4.05033604      12.29121606        2       1.00000000       0.00000000       0.00000000       0.00000000       0.00000000       0.00000000       0.00000000
H        0.00000000       0.00000000      14.58243212        1       1.00000000       0.00000000       0.00000000       0.00000000       0.00000000       0.00000000       0.00000000
H        2.80615512       0.00000000      14.58243212        1       1.00000000       0.00000000       0.00000000       0.00000000       0.00000000       0.00000000       0.00000000
H        1.40307756       2.43020162      14.58243212        1       1.00000000       0.00000000       0.00000000       0.00000000       0.00000000       0.00000000       0.00000000
H        4.20923268       2.43020162      14.58243212        1       1.00000000       0.00000000       0.00000000       0.00000000       0.00000000       0.00000000       0.00000000
H        1.41038295       4.05464999      16.79643374        0       1.00000000       0.00000090      -0.00000076       0.00000086      -0.00000058      -0.00000141       0.00000165
H        4.20192950       4.05465029      16.79643389        0       1.00000000      -0.00000047       0.00000096       0.00000157       0.00000094      -0.00000128       0.00000443
H       -0.00000024       1.62013523       7.77136675        0       1.00000000       0.00000080      -0.00000050       0.00000140      -0.00000042      -0.00000104      -0.00000257
H        0.00000104       3.23913301      19.01550943        0       1.00000000       0.00000010      -0.00000120      -0.00000146      -0.00000039       0.00000042      -0.00000344
H        2.80615486       1.62013459       7.77136769        0       1.00000000      -0.00000088       0.00000056       0.00000056       0.00000119      -0.00000062       0.00000122
H        2.80615486       1.62945878      16.83224341        0       1.00000000      -0.00000043      -0.00000028       0.00000046      -0.00000255       0.00000073      -0.00000070
H        1.40307753       4.05033615       7.77136787        0       1.00000000       0.00000030      -0.00000039      -0.00000067      -0.00000210       0.00000016       0.00000317
H       -0.00000082       1.60387794      16.80115870        0       1.00000000      -0.00000059      -0.00000032      -0.00000066       0.00000179       0.00000265      -0.00000043
H        4.20923218       4.05033586       7.77136692        0       1.00000000      -0.00000099      -0.00000197      -0.00000064       0.00000192       0.00000014       0.00000043
21
Lattice="5.612310241546866 0.0 0.0 0.0 4.860403243099165 0.0 0.0 0.0 24.582432123328676" Properties=species:S:1:pos:R:3:tags:I:1:masses:R:1:momenta:R:3:forces:R:3 KEmax=27.14459056223422 iter=239999 volume=670.5618179858607 ns_energy=-14.090233046671425 last_walked_iter_clone=239950 energy=-14.090233046681583 stress="0.02148301297685913 -5.9648975943466966e-09 1.3076121221167272e-08 -5.9648975943466966e-09 0.021542543248049526 -8.407774094406332e-09 1.3076121221167272e-08 -8.407774094406332e-09 0.01064265107638634" pbc="T T F"
H        1.40307756       0.81006721      10.00000000        3       1.00000000       0.00000000       0.00000000       0.00000000       0.00000000       0.00000000       0.00000000
H        4.20923268       0.81006721      10.00000000        3       1.00000000       0.00000000       0.00000000       0.00000000       0.00000000       0.00000000       0.00000000
H        0.00000000       3.24026883      10.00000000        3       1.00000000       0.00000000       0.00000000       0.00000000       0.00000000       0.00000000       0.00000000
H        2.80615512       3.24026883      10.00000000        3       1.00000000       0.00000000       0.00000000       0.00000000       0.00000000       0.00000000       0.00000000
H        0.00000000       1.62013441      12.29121606        2       1.00000000       0.00000000       0.00000000       0.00000000       0.00000000       0.00000000       0.00000000
H        2.80615512       1.62013441      12.29121606        2       1.00000000       0.00000000       0.00000000       0.00000000       0.00000000       0.00000000       0.00000000
H        1.40307756       4.05033604      12.29121606        2       1.00000000       0.00000000       0.00000000       0.00000000       0.00000000       0.00000000       0.00000000
H        4.20923268       4.05033604      12.29121606        2       1.00000000       0.00000000       0.00000000       0.00000000       0.00000000       0.00000000       0.00000000
H        0.00000000       0.00000000      14.58243212        1       1.00000000       0.00000000       0.00000000       0.00000000       0.00000000       0.00000000       0.00000000
H        2.80615512       0.00000000      14.58243212        1       1.00000000       0.00000000       0.00000000       0.00000000       0.00000000       0.00000000       0.00000000
H        1.40307756       2.43020162      14.58243212        1       1.00000000       0.00000000       0.00000000       0.00000000       0.00000000       0.00000000       0.00000000
H        4.20923268       2.43020162      14.58243212        1       1.00000000       0.00000000       0.00000000       0.00000000       0.00000000       0.00000000       0.00000000
H        1.41038138       4.05465275      16.79643372        0       1.00000000      -0.00000064      -0.00000088      -0.00000010      -0.00000058      -0.00000141       0.00000165
H        4.20192923       4.05465202      16.79643377        0       1.00000000      -0.00000020      -0.00000150      -0.00000117       0.00000094      -0.00000128       0.00000443
H        0.00000030       1.62013469       7.77136652        0       1.00000000      -0.00000071      -0.00000064      -0.00000071      -0.00000042      -0.00000104      -0.00000257
H        5.61230868       3.23913096      19.01550882        0       1.00000000       0.00000025       0.00000084      -0.00000069      -0.00000039       0.00000042      -0.00000344
H        2.80615508       1.62013456       7.77136750        0       1.00000000       0.00000080      -0.00000025      -0.00000019       0.00000119      -0.00000062       0.00000122
H        2.80615535       1.62946128      16.83224384        0       1.00000000      -0.00000018       0.00000076      -0.00000042      -0.00000255       0.00000073      -0.00000070
H        1.40307664       4.05033709       7.77136734        0       1.00000000       0.00000033       0.00000030       0.00000191      -0.00000210       0.00000016       0.00000317
H        0.00000028       1.60388040      16.80115749        0       1.00000000       0.00000010      -0.00000086       0.00000096       0.00000179       0.00000265      -0.00000043
H        4.20923210       4.05033639       7.77136697        0       1.00000000      -0.00000129       0.00000083      -0.00000049       0.00000192       0.00000014       0.00000043
21
Lattice="5.612310241546866 0.0 0.0 0.0 4.860403243099165 0.0 0.0 0.0 24.582432123328676" Properties=species:S:1:pos:R:3:tags:I:1:masses:R:1:momenta:R:3:forces:R:3 KEmax=27.14459056223422 iter=239999 volume=670.5618179858607 ns_energy=-14.090233046671438 last_walked_iter_clone=239995 energy=-14.090233046681583 stress="0.02148301297685913 -5.9648975943466966e-09 1.3076121221167272e-08 -5.9648975943466966e-09 0.021542543248049526 -8.407774094406332e-09 1.3076121221167272e-08 -8.407774094406332e-09 0.01064265107638634" pbc="T T F"
H        1.40307756       0.81006721      10.00000000        3       1.00000000       0.00000000       0.00000000       0.00000000       0.00000000       0.00000000       0.00000000
H        4.20923268       0.81006721      10.00000000        3       1.00000000       0.00000000       0.00000000       0.00000000       0.00000000       0.00000000       0.00000000
H        0.00000000       3.24026883      10.00000000        3       1.00000000       0.00000000       0.00000000       0.00000000       0.00000000       0.00000000       0.00000000
H        2.80615512       3.24026883      10.00000000        3       1.00000000       0.00000000       0.00000000       0.00000000       0.00000000       0.00000000       0.00000000
H        0.00000000       1.62013441      12.29121606        2       1.00000000       0.00000000       0.00000000       0.00000000       0.00000000       0.00000000       0.00000000
H        2.80615512       1.62013441      12.29121606        2       1.00000000       0.00000000       0.00000000       0.00000000       0.00000000       0.00000000       0.00000000
H        1.40307756       4.05033604      12.29121606        2       1.00000000       0.00000000       0.00000000       0.00000000       0.00000000       0.00000000       0.00000000
H        4.20923268       4.05033604      12.29121606        2       1.00000000       0.00000000       0.00000000       0.00000000       0.00000000       0.00000000       0.00000000
H        0.00000000       0.00000000      14.58243212        1       1.00000000       0.00000000       0.00000000       0.00000000       0.00000000       0.00000000       0.00000000
H        2.80615512       0.00000000      14.58243212        1       1.00000000       0.00000000       0.00000000       0.00000000       0.00000000       0.00000000       0.00000000
H        1.40307756       2.43020162      14.58243212        1       1.00000000       0.00000000       0.00000000       0.00000000       0.00000000       0.00000000       0.00000000
H        4.20923268       2.43020162      14.58243212        1       1.00000000       0.00000000       0.00000000       0.00000000       0.00000000       0.00000000       0.00000000
H        1.41038136       4.05465027      16.79643340        0       1.00000000      -0.00000073      -0.00000045       0.00000065      -0.00000058      -0.00000141       0.00000165
H        4.20192895       4.05464983      16.79643305        0       1.00000000      -0.00000114      -0.00000038      -0.00000075       0.00000094      -0.00000128       0.00000443
H        5.61231023       1.62013385       7.77136656        0       1.00000000      -0.00000090       0.00000055       0.00000177      -0.00000042      -0.00000104      -0.00000257
H       -0.00000106       3.23913067      19.01550849        0       1.00000000       0.00000002       0.00000019      -0.00000113      -0.00000039       0.00000042      -0.00000344
H        2.80615531       1.62013399       7.77136722        0       1.00000000       0.00000121      -0.00000091      -0.00000037       0.00000119      -0.00000062       0.00000122
H        2.80615499       1.62945898      16.83224223        0       1.00000000       0.00000061      -0.00000144      -0.00000012      -0.00000255       0.00000073      -0.00000070
H        1.40307731       4.05033708       7.77136737        0       1.00000000       0.00000049      -0.00000099      -0.00000168      -0.00000210       0.00000016       0.00000317
H       -0.00000004       1.60387753      16.80115726        0       1.00000000       0.00000034      -0.00000102      -0.00000058       0.00000179       0.00000265      -0.00000043
H        4.20923171       4.05033530       7.77136746        0       1.00000000       0.00000030      -0.00000138      -0.00000046       0.00000192       0.00000014       0.00000043
21
Lattice="5.612310241546866 0.0 0.0 0.0 4.860403243099165 0.0 0.0 0.0 24.582432123328676" Properties=species:S:1:pos:R:3:tags:I:1:masses:R:1:momenta:R:3:forces:R:3 KEmax=27.14459056223422 iter=239999 volume=670.5618179858607 ns_energy=-14.090233046671804 last_walked_iter_clone=239996 energy=-14.090233046681583 stress="0.02148301297685913 -5.9648975943466966e-09 1.3076121221167272e-08 -5.9648975943466966e-09 0.021542543248049526 -8.407774094406332e-09 1.3076121221167272e-08 -8.407774094406332e-09 0.01064265107638634" pbc="T T F"
H        1.40307756       0.81006721      10.00000000        3       1.00000000       0.00000000       0.00000000       0.00000000       0.00000000       0.00000000       0.00000000
H        4.20923268       0.81006721      10.00000000        3       1.00000000       0.00000000       0.00000000       0.00000000       0.00000000       0.00000000       0.00000000
H        0.00000000       3.24026883      10.00000000        3       1.00000000       0.00000000       0.00000000       0.00000000       0.00000000       0.00000000       0.00000000
H        2.80615512       3.24026883      10.00000000        3       1.00000000       0.00000000       0.00000000       0.00000000       0.00000000       0.00000000       0.00000000
H        0.00000000       1.62013441      12.29121606        2       1.00000000       0.00000000       0.00000000       0.00000000       0.00000000       0.00000000       0.00000000
H        2.80615512       1.62013441      12.29121606        2       1.00000000       0.00000000       0.00000000       0.00000000       0.00000000       0.00000000       0.00000000
H        1.40307756       4.05033604      12.29121606        2       1.00000000       0.00000000       0.00000000       0.00000000       0.00000000       0.00000000       0.00000000
H        4.20923268       4.05033604      12.29121606        2       1.00000000       0.00000000       0.00000000       0.00000000       0.00000000       0.00000000       0.00000000
H        0.00000000       0.00000000      14.58243212        1       1.00000000       0.00000000       0.00000000       0.00000000       0.00000000       0.00000000       0.00000000
H        2.80615512       0.00000000      14.58243212        1       1.00000000       0.00000000       0.00000000       0.00000000       0.00000000       0.00000000       0.00000000
H        1.40307756       2.43020162      14.58243212        1       1.00000000       0.00000000       0.00000000       0.00000000       0.00000000       0.00000000       0.00000000
H        4.20923268       2.43020162      14.58243212        1       1.00000000       0.00000000       0.00000000       0.00000000       0.00000000       0.00000000       0.00000000
H        1.41038228       4.05465071      16.79643395        0       1.00000000      -0.00000189       0.00000186       0.00000064      -0.00000058      -0.00000141       0.00000165
H        4.20192957       4.05465012      16.79643438        0       1.00000000       0.00000151       0.00000023       0.00000032       0.00000094      -0.00000128       0.00000443
H        5.61231003       1.62013443       7.77136774        0       1.00000000      -0.00000092       0.00000014       0.00000184      -0.00000042      -0.00000104      -0.00000257
H        0.00000250       3.23912857      19.01550945        0       1.00000000      -0.00000089      -0.00000165       0.00000066      -0.00000039       0.00000042      -0.00000344
H        2.80615530       1.62013480       7.77136756        0       1.00000000       0.00000016      -0.00000006      -0.00000064       0.00000119      -0.00000062       0.00000122
H        2.80615617       1.62945921      16.83224308        0       1.00000000      -0.00000178      -0.00000073       0.00000019      -0.00000255       0.00000073      -0.00000070
H        1.40307752       4.05033658       7.77136720        0       1.00000000       0.00000038       0.00000211       0.00000092      -0.00000210       0.00000016       0.00000317
H        0.00000034       1.60387796      16.80115798        0       1.00000000      -0.00000047      -0.00000009       0.00000009       0.00000179       0.00000265      -0.00000043
H        4.20923259       4.05033643       7.77136680        0       1.00000000       0.00000021      -0.00000094       0.00000112       0.00000192       0.00000014       0.00000043
21
Lattice="5.612310241546866 0.0 0.0 0.0 4.860403243099165 0.0 0.0 0.0 24.582432123328676" Properties=species:S:1:pos:R:3:tags:I:1:masses:R:1:momenta:R:3:forces:R:3 KEmax=27.14459056223422 iter=239999 volume=670.5618179858607 ns_energy=-14.0902330466714 last_walked_iter_clone=239914 energy=-14.090233046681583 stress="0.02148301297685913 -5.9648975943466966e-09 1.3076121221167272e-08 -5.9648975943466966e-09 0.021542543248049526 -8.407774094406332e-09 1.3076121221167272e-08 -8.407774094406332e-09 0.01064265107638634" pbc="T T F"
H        1.40307756       0.81006721      10.00000000        3       1.00000000       0.00000000       0.00000000       0.00000000       0.00000000       0.00000000       0.00000000
H        4.20923268       0.81006721      10.00000000        3       1.00000000       0.00000000       0.00000000       0.00000000       0.00000000       0.00000000       0.00000000
H        0.00000000       3.24026883      10.00000000        3       1.00000000       0.00000000       0.00000000       0.00000000       0.00000000       0.00000000       0.00000000
H        2.80615512       3.24026883      10.00000000        3       1.00000000       0.00000000       0.00000000       0.00000000       0.00000000       0.00000000       0.00000000
H        0.00000000       1.62013441      12.29121606        2       1.00000000       0.00000000       0.00000000       0.00000000       0.00000000       0.00000000       0.00000000
H        2.80615512       1.62013441      12.29121606        2       1.00000000       0.00000000       0.00000000       0.00000000       0.00000000       0.00000000       0.00000000
H        1.40307756       4.05033604      12.29121606        2       1.00000000       0.00000000       0.00000000       0.00000000       0.00000000       0.00000000       0.00000000
H        4.20923268       4.05033604      12.29121606        2       1.00000000       0.00000000       0.00000000       0.00000000       0.00000000       0.00000000       0.00000000
H        0.00000000       0.00000000      14.58243212        1       1.00000000       0.00000000       0.00000000       0.00000000       0.00000000       0.00000000       0.00000000
H        2.80615512       0.00000000      14.58243212        1       1.00000000       0.00000000       0.00000000       0.00000000       0.00000000       0.00000000       0.00000000
H        1.40307756       2.43020162      14.58243212        1       1.00000000       0.00000000       0.00000000       0.00000000       0.00000000       0.00000000       0.00000000
H        4.20923268       2.43020162      14.58243212        1       1.00000000       0.00000000       0.00000000       0.00000000       0.00000000       0.00000000       0.00000000
H        1.41038128       4.05465065      16.79643414        0       1.00000000      -0.00000175      -0.00000017       0.00000146      -0.00000058      -0.00000141       0.00000165
H        4.20192816       4.05464964      16.79643467        0       1.00000000       0.00000120       0.00000027       0.00000033       0.00000094      -0.00000128       0.00000443
H        5.61231041       1.62013648       7.77136659        0       1.00000000       0.00000116      -0.00000009      -0.00000048      -0.00000042      -0.00000104      -0.00000257
H       -0.00000020       3.23912816      19.01550956        0       1.00000000      -0.00000059       0.00000053      -0.00000010      -0.00000039       0.00000042      -0.00000344
H        2.80615527       1.62013564       7.77136650        0       1.00000000      -0.00000098       0.00000139       0.00000038       0.00000119      -0.00000062       0.00000122
H        2.80615407       1.62945911      16.83224319        0       1.00000000      -0.00000035      -0.00000102       0.00000080      -0.00000255       0.00000073      -0.00000070
H        1.40307733       4.05033767       7.77136716        0       1.00000000       0.00000055      -0.00000004       0.00000003      -0.00000210       0.00000016       0.00000317
H       -0.00000147       1.60387942      16.80115754        0       1.00000000      -0.00000020      -0.00000042       0.00000141       0.00000179       0.00000265      -0.00000043
H        4.20923228       4.05033675       7.77136675        0       1.00000000       0.00000013       0.00000073      -0.00000091       0.00000192       0.00000014       0.00000043
21
Lattice="5.612310241546866 0.0 0.0 0.0 4.860403243099165 0.0 0.0 0.0 24.582432123328676" Properties=species:S:1:pos:R:3:tags:I:1:masses:R:1:momenta:R:3:forces:R:3 KEmax=27.14459056223422 iter=239999 volume=670.5618179858607 ns_energy=-14.090233046671335 last_walked_iter_clone=239822 energy=-14.090233046681583 stress="0.02148301297685913 -5.9648975943466966e-09 1.3076121221167272e-08 -5.9648975943466966e-09 0.021542543248049526 -8.407774094406332e-09 1.3076121221167272e-08 -8.407774094406332e-09 0.01064265107638634" pbc="T T F"
H        1.40307756       0.81006721      10.00000000        3       1.00000000       0.00000000       0.00000000       0.00000000       0.00000000       0.00000000       0.00000000
H        4.20923268       0.81006721      10.00000000        3       1.00000000       0.00000000       0.00000000       0.00000000       0.00000000       0.00000000       0.00000000
H        0.00000000       3.24026883      10.00000000        3       1.00000000       0.00000000       0.00000000       0.00000000       0.00000000       0.00000000       0.00000000
H        2.80615512       3.24026883      10.00000000        3       1.00000000       0.00000000       0.00000000       0.00000000       0.00000000       0.00000000       0.00000000
H        0.00000000       1.62013441      12.29121606        2       1.00000000       0.00000000       0.00000000       0.00000000       0.00000000       0.00000000       0.00000000
H        2.80615512       1.62013441      12.29121606        2       1.00000000       0.00000000       0.00000000       0.00000000       0.00000000       0.00000000       0.00000000
H        1.40307756       4.05033604      12.29121606        2       1.00000000       0.00000000       0.00000000       0.00000000       0.00000000       0.00000000       0.00000000
H        4.20923268       4.05033604      12.29121606        2       1.00000000       0.00000000       0.00000000       0.00000000       0.00000000       0.00000000       0.00000000
H        0.00000000       0.00000000      14.58243212        1       1.00000000       0.00000000       0.00000000       0.00000000       0.00000000       0.00000000       0.00000000
H        2.80615512       0.00000000      14.58243212        1       1.00000000       0.00000000       0.00000000       0.00000000       0.00000000       0.00000000       0.00000000
H        1.40307756       2.43020162      14.58243212        1       1.00000000       0.00000000       0.00000000       0.00000000       0.00000000       0.00000000       0.00000000
H        4.20923268       2.43020162      14.58243212        1       1.00000000       0.00000000       0.00000000       0.00000000       0.00000000       0.00000000       0.00000000
H        1.41038125       4.05465097      16.79643433        0       1.00000000       0.00000031       0.00000053       0.00000051      -0.00000058      -0.00000141       0.00000165
H        4.20192865       4.05465122      16.79643351        0       1.00000000      -0.00000112      -0.00000242       0.00000070       0.00000094      -0.00000128       0.00000443
H        5.61231065       1.62013531       7.77136749        0       1.00000000       0.00000050      -0.00000064       0.00000048      -0.00000042      -0.00000104      -0.00000257
H       -0.00000014       3.23913061      19.01550927        0       1.00000000       0.00000126       0.00000103       0.00000003      -0.00000039       0.00000042      -0.00000344
H        2.80615588       1.62013512       7.77136832        0       1.00000000      -0.00000004      -0.00000081       0.00000049       0.00000119      -0.00000062       0.00000122
H        2.80615442       1.62945934      16.83224397        0       1.00000000      -0.00000234      -0.00000088      -0.00000032      -0.00000255       0.00000073      -0.00000070