21
Lattice="5.612310241546866 0.0 0.0 0.0 4.860403243099165 0.0 0.0 0.0 24.582432123328676" Properties=species:S:1:pos:R:3:tags:I:1:masses:R:1:momenta:R:3:forces:R:3 KEmax=27.14459056223422 iter=218790 volume=670.5618179858607 ns_energy=-14.090233046614244 last_walked_iter_clone=218575 energy=-14.090233046644407 stress="0.021482975968146856 -5.145159717980152e-09 1.286189495238451e-08 -5.145159717980152e-09 0.021542568636155127 5.3839500800410875e-08 1.286189495238451e-08 5.3839500800410875e-08 0.010642624566786309" pbc="T T F"
H        1.40307756       0.81006721      10.00000000        3       1.00000000       0.00000000       0.00000000       0.00000000       0.00000000       0.00000000       0.00000000
H        4.20923268       0.81006721      10.00000000        3       1.00000000       0.00000000       0.00000000       0.00000000       0.00000000       0.00000000       0.00000000
H        0.00000000       3.24026883      10.00000000        3       1.00000000       0.00000000       0.00000000       0.00000000       0.00000000       0.00000000       0.00000000
H        2.80615512       3.24026883      10.00000000        3       1.00000000       0.00000000       0.00000000       0.00000000       0.00000000       0.00000000       0.00000000
H        0.00000000       1.62013441      12.29121606        2       1.00000000       0.00000000       0.00000000       0.00000000       0.00000000       0.00000000       0.00000000
H        2.80615512       1.62013441      12.29121606        2       1.00000000       0.00000000       0.00000000       0.00000000       0.00000000       0.00000000       0.00000000
H        1.40307756       4.05033604      12.29121606        2       1.00000000       0.00000000       0.00000000       0.00000000       0.00000000       0.00000000       0.00000000
H        4.20923268       4.05033604      12.29121606        2       1.00000000       0.00000000       0.00000000       0.00000000       0.00000000       0.00000000       0.00000000
H        0.00000000       0.00000000      14.58243212        1       1.00000000       0.00000000       0.00000000       0.00000000       0.00000000       0.00000000       0.00000000
H        2.80615512       0.00000000      14.58243212        1       1.00000000       0.00000000       0.00000000       0.00000000       0.00000000       0.00000000       0.00000000
H        1.40307756       2.43020162      14.58243212        1       1.00000000       0.00000000       0.00000000       0.00000000       0.00000000       0.00000000       0.00000000
H        4.20923268       2.43020162      14.58243212        1       1.00000000       0.00000000       0.00000000       0.00000000       0.00000000       0.00000000       0.00000000
H        1.41038184       4.05465129      16.79643393        0       1.00000000      -0.00000125       0.00000196       0.00000240       0.00000450       0.00000288      -0.00000105
H        4.20193076       4.05465159      16.79643471        0       1.00000000       0.00000583       0.00000053       0.00000314      -0.00000304      -0.00000277      -0.00000395
H       -0.00000020       1.62013431       7.77136674        0       1.00000000       0.00000043       0.00000284      -0.00000120       0.00000433      -0.00000400       0.00000238
H        0.00000067       3.23913085      19.01550918        0       1.00000000      -0.00000249      -0.00000019       0.00000024       0.00000027      -0.00000024       0.00000367
H        2.80615546       1.62013206       7.77136700        0       1.00000000      -0.00000140      -0.00000113       0.00000131      -0.00000256      -0.00000771      -0.00000477
H        2.80615630       1.62945967      16.83224339        0       1.00000000       0.00000159       0.00000174      -0.00000095      -0.00000597       0.00000122      -0.00000106
H        1.40307734       4.05033465       7.77136745        0       1.00000000      -0.00000023      -0.00000116       0.00000058      -0.00000277       0.00000881      -0.00000081
H        5.61231018       1.60387845      16.80115840        0       1.00000000      -0.00000029      -0.00000316      -0.00000270       0.00000481      -0.00000391      -0.00000413
H        4.20923142       4.05033592       7.77136690        0       1.00000000      -0.00000163      -0.00000103      -0.00000043       0.00000351       0.00000554       0.00000113
21
Lattice="5.612310241546866 0.0 0.0 0.0 4.860403243099165 0.0 0.0 0.0 24.582432123328676" Properties=species:S:1:pos:R:3:tags:I:1:masses:R:1:momenta:R:3:forces:R:3 KEmax=27.14459056223422 iter=218790 volume=670.5618179858607 ns_energy=-14.090233046614758 last_walked_iter_clone=218583 energy=-14.090233046644407 stress="0.021482975968146856 -5.145159717980152e-09 1.286189495238451e-08 -5.145159717980152e-09 0.021542568636155127 5.3839500800410875e-08 1.286189495238451e-08 5.3839500800410875e-08 0.010642624566786309" pbc="T T F"
H        1.40307756       0.81006721      10.00000000        3       1.00000000       0.00000000       0.00000000       0.00000000       0.00000000       0.00000000       0.00000000
H        4.20923268       0.81006721      10.00000000        3       1.00000000       0.00000000       0.00000000       0.00000000       0.00000000       0.00000000       0.00000000
H        0.00000000       3.24026883      10.00000000        3       1.00000000       0.00000000       0.00000000       0.00000000       0.00000000       0.00000000       0.00000000
H        2.80615512       3.24026883      10.00000000        3       1.00000000       0.00000000       0.00000000       0.00000000       0.00000000       0.00000000       0.00000000
H        0.00000000       1.62013441      12.29121606        2       1.00000000       0.00000000       0.00000000       0.00000000       0.00000000       0.00000000       0.00000000
H        2.80615512       1.62013441      12.29121606        2       1.00000000       0.00000000       0.00000000       0.00000000       0.00000000       0.00000000       0.00000000
H        1.40307756       4.05033604      12.29121606        2       1.00000000       0.00000000       0.00000000       0.00000000       0.00000000       0.00000000       0.00000000
H        4.20923268       4.05033604      12.29121606        2       1.00000000       0.00000000       0.00000000       0.00000000       0.00000000       0.00000000       0.00000000
H        0.00000000       0.00000000      14.58243212        1       1.00000000       0.00000000       0.00000000       0.00000000       0.00000000       0.00000000       0.00000000
H        2.80615512       0.00000000      14.58243212        1       1.00000000       0.00000000       0.00000000       0.00000000       0.00000000       0.00000000       0.00000000
H        1.40307756       2.43020162      14.58243212        1       1.00000000       0.00000000       0.00000000       0.00000000       0.00000000       0.00000000       0.00000000
H        4.20923268       2.43020162      14.58243212        1       1.00000000       0.00000000       0.00000000       0.00000000       0.00000000       0.00000000       0.00000000
H        1.41037942       4.05465169      16.79643352        0       1.00000000       0.00000131      -0.00000391       0.00000000       0.00000450       0.00000288      -0.00000105
H        4.20192768       4.05465086      16.79643411        0       1.00000000       0.00000166       0.00000100       0.00000009      -0.00000304      -0.00000277      -0.00000395
H        0.00000083       1.62013449       7.77136607        0       1.00000000      -0.00000279       0.00000176       0.00000246       0.00000433      -0.00000400       0.00000238
H       -0.00000042       3.23912903      19.01550723        0       1.00000000      -0.00000086       0.00000131       0.00000067       0.00000027      -0.00000024       0.00000367
H        2.80615558       1.62013374       7.77136779        0       1.00000000       0.00000060       0.00000275       0.00000151      -0.00000256      -0.00000771      -0.00000477
H        2.80615538       1.62945941      16.83224242        0       1.00000000       0.00000203      -0.00000147      -0.00000121      -0.00000597       0.00000122      -0.00000106
H        1.40307834       4.05033572       7.77136822        0       1.00000000       0.00000130      -0.00000116       0.00000179      -0.00000277       0.00000881      -0.00000081
H        5.61231064       1.60387727      16.80115792        0       1.00000000      -0.00000339       0.00000259       0.00000314       0.00000481      -0.00000391      -0.00000413
H        4.20923328       4.05033485       7.77136809        0       1.00000000      -0.00000248       0.00000102      -0.00000026       0.00000351       0.00000554       0.00000113
21
Lattice="5.612310241546866 0.0 0.0 0.0 4.860403243099165 0.0 0.0 0.0 24.582432123328676" Properties=species:S:1:pos:R:3:tags:I:1:masses:R:1:momenta:R:3:forces:R:3 KEmax=27.14459056223422 iter=218790 volume=670.5618179858607 ns_energy=-14.090233046615714 last_walked_iter_clone=218361 energy=-14.090233046644407 stress="0.021482975968146856 -5.145159717980152e-09 1.286189495238451e-08 -5.145159717980152e-09 0.021542568636155127 5.3839500800410875e-08 1.286189495238451e-08 5.3839500800410875e-08 0.010642624566786309" pbc="T T F"
H        1.40307756       0.81006721      10.00000000        3       1.00000000       0.00000000       0.00000000       0.00000000       0.00000000       0.00000000       0.00000000
H        4.20923268       0.81006721      10.00000000        3       1.00000000       0.00000000       0.00000000       0.00000000       0.00000000       0.00000000       0.00000000
H        0.00000000       3.24026883      10.00000000        3       1.00000000       0.00000000       0.00000000       0.00000000       0.00000000       0.00000000       0.00000000
H        2.80615512       3.24026883      10.00000000        3       1.00000000       0.00000000       0.00000000       0.00000000       0.00000000       0.00000000       0.00000000
H        0.00000000       1.62013441      12.29121606        2       1.00000000       0.00000000       0.00000000       0.00000000       0.00000000       0.00000000       0.00000000
H        2.80615512       1.62013441      12.29121606        2       1.00000000       0.00000000       0.00000000       0.00000000       0.00000000       0.00000000       0.00000000
H        1.40307756       4.05033604      12.29121606        2       1.00000000       0.00000000       0.00000000       0.00000000       0.00000000       0.00000000       0.00000000
H        4.20923268       4.05033604      12.29121606        2       1.00000000       0.00000000       0.00000000       0.00000000       0.00000000       0.00000000       0.00000000
H        0.00000000       0.00000000      14.58243212        1       1.00000000       0.00000000       0.00000000       0.00000000       0.00000000       0.00000000       0.00000000
H        2.80615512       0.00000000      14.58243212        1       1.00000000       0.00000000       0.00000000       0.00000000       0.00000000       0.00000000       0.00000000
H        1.40307756       2.43020162      14.58243212        1       1.00000000       0.00000000       0.00000000       0.00000000       0.00000000       0.00000000       0.00000000
H        4.20923268       2.43020162      14.58243212        1       1.00000000       0.00000000       0.00000000       0.00000000       0.00000000       0.00000000       0.00000000
H        1.41037846       4.05464737      16.79643442        0       1.00000000      -0.00000014       0.00000000       0.00000255       0.00000450       0.00000288      -0.00000105
H        4.20192636       4.05464907      16.79643465        0       1.00000000      -0.00000099      -0.00000074      -0.00000250      -0.00000304      -0.00000277      -0.00000395
H        5.61230968       1.62013454       7.77136770        0       1.00000000      -0.00000012       0.00000017       0.00000135       0.00000433      -0.00000400       0.00000238
H       -0.00000276       3.23912886      19.01551017        0       1.00000000      -0.00000111       0.00000079      -0.00000026       0.00000027      -0.00000024       0.00000367
H        2.80615378       1.62013367       7.77136791        0       1.00000000       0.00000387      -0.00000037       0.00000228      -0.00000256      -0.00000771      -0.00000477
H        2.80615308       1.62945540      16.83224295        0       1.00000000      -0.00000335      -0.00000080       0.00000188      -0.00000597       0.00000122      -0.00000106
H        1.40307851       4.05033652       7.77136795        0       1.00000000      -0.00000031       0.00000023       0.00000387      -0.00000277       0.00000881      -0.00000081
H       -0.00000270       1.60387687      16.80115832        0       1.00000000       0.00000196       0.00000001       0.00000086       0.00000481      -0.00000391      -0.00000413
H        4.20923419       4.05033691       7.77136801        0       1.00000000       0.00000195       0.00000165      -0.00000058       0.00000351       0.00000554       0.00000113
21
Lattice="5.612310241546866 0.0 0.0 0.0 4.860403243099165 0.0 0.0 0.0 24.582432123328676" Properties=species:S:1:pos:R:3:tags:I:1:masses:R:1:momenta:R:3:forces:R:3 KEmax=27.14459056223422 iter=218790 volume=670.5618179858607 ns_energy=-14.090233046617112 last_walked_iter_clone=218647 energy=-14.090233046644407 stress="0.021482975968146856 -5.145159717980152e-09 1.286189495238451e-08 -5.145159717980152e-09 0.021542568636155127 5.3839500800410875e-08 1.286189495238451e-08 5.3839500800410875e-08 0.010642624566786309" pbc="T T F"
H        1.40307756       0.81006721      10.00000000        3       1.00000000       0.00000000       0.00000000       0.00000000       0.00000000       0.00000000       0.00000000
H        4.20923268       0.81006721      10.00000000        3       1.00000000       0.00000000       0.00000000       0.00000000       0.00000000       0.00000000       0.00000000
H        0.00000000       3.24026883      10.00000000        3       1.00000000       0.00000000       0.00000000       0.00000000       0.00000000       0.00000000       0.00000000
H        2.80615512       3.24026883      10.00000000        3       1.00000000       0.00000000       0.00000000       0.00000000       0.00000000       0.00000000       0.00000000
H        0.00000000       1.62013441      12.29121606        2       1.00000000       0.00000000       0.00000000       0.00000000       0.00000000       0.00000000       0.00000000
H        2.80615512       1.62013441      12.29121606        2       1.00000000       0.00000000       0.00000000       0.00000000       0.00000000       0.00000000       0.00000000
H        1.40307756       4.05033604      12.29121606        2       1.00000000       0.00000000       0.00000000       0.00000000       0.00000000       0.00000000       0.00000000
H        4.20923268       4.05033604      12.29121606        2       1.00000000       0.00000000       0.00000000       0.00000000       0.00000000       0.00000000       0.00000000
H        0.00000000       0.00000000      14.58243212        1       1.00000000       0.00000000       0.00000000       0.00000000       0.00000000       0.00000000       0.00000000
H        2.80615512       0.00000000      14.58243212        1       1.00000000       0.00000000       0.00000000       0.00000000       0.00000000       0.00000000       0.00000000
H        1.40307756       2.43020162      14.58243212        1       1.00000000       0.00000000       0.00000000       0.00000000       0.00000000       0.00000000       0.00000000
H        4.20923268       2.43020162      14.58243212        1       1.00000000       0.00000000       0.00000000       0.00000000       0.00000000       0.00000000       0.00000000
H        1.41038005       4.05465202      16.79643378        0       1.00000000       0.00000020      -0.00000091       0.00000104       0.00000450       0.00000288      -0.00000105
H        4.20192590       4.05465040      16.79643253        0       1.00000000      -0.00000031       0.00000174      -0.00000009      -0.00000304      -0.00000277      -0.00000395
H        0.00000088       1.62013408       7.77136715        0       1.00000000       0.00000017      -0.00000157      -0.00000038       0.00000433      -0.00000400       0.00000238
H        5.61230911       3.23913276      19.01550922        0       1.00000000       0.00000106      -0.00000014       0.00000099       0.00000027      -0.00000024       0.00000367
H        2.80615296       1.62013363       7.77136885        0       1.00000000      -0.00000207       0.00000229      -0.00000260      -0.00000256      -0.00000771      -0.00000477
H        2.80615210       1.62945959      16.83224248        0       1.00000000      -0.00000119       0.00000021       0.00000092      -0.00000597       0.00000122      -0.00000106
H        1.40307668       4.05033549       7.77136757        0       1.00000000       0.00000293       0.00000008      -0.00000008      -0.00000277       0.00000881      -0.00000081
H       -0.00000303       1.60387912      16.80115917        0       1.00000000      -0.00000260      -0.00000104      -0.00000016       0.00000481      -0.00000391      -0.00000413
H        4.20923341       4.05033402       7.77136627        0       1.00000000      -0.00000201       0.00000038      -0.00000244       0.00000351       0.00000554       0.00000113
21
Lattice="5.612310241546866 0.0 0.0 0.0 4.860403243099165 0.0 0.0 0.0 24.582432123328676" Properties=species:S:1:pos:R:3:tags:I:1:masses:R:1:momenta:R:3:forces:R:3 KEmax=27.14459056223422 iter=218790 volume=670.5618179858607 ns_energy=-14.090233046614072 last_walked_iter_clone=218168 energy=-14.090233046644407 stress="0.021482975968146856 -5.145159717980152e-09 1.286189495238451e-08 -5.145159717980152e-09 0.021542568636155127 5.3839500800410875e-08 1.286189495238451e-08 5.3839500800410875e-08 0.010642624566786309" pbc="T T F"
H        1.40307756       0.81006721      10.00000000        3       1.00000000       0.00000000       0.00000000       0.00000000       0.00000000       0.00000000       0.00000000
H        4.20923268       0.81006721      10.00000000        3       1.00000000       0.00000000       0.00000000       0.00000000       0.00000000       0.00000000       0.00000000
H        0.00000000       3.24026883      10.00000000        3       1.00000000       0.00000000       0.00000000       0.00000000       0.00000000       0.00000000       0.00000000
H        2.80615512       3.24026883      10.00000000        3       1.00000000       0.00000000       0.00000000       0.00000000       0.00000000       0.00000000       0.00000000
H        0.00000000       1.62013441      12.29121606        2       1.00000000       0.00000000       0.00000000       0.00000000       0.00000000       0.00000000       0.00000000
H        2.80615512       1.62013441      12.29121606        2       1.00000000       0.00000000       0.00000000       0.00000000       0.00000000       0.00000000       0.00000000
H        1.40307756       4.05033604      12.29121606        2       1.00000000       0.00000000       0.00000000       0.00000000       0.00000000       0.00000000       0.00000000
H        4.20923268       4.05033604      12.29121606        2       1.00000000       0.00000000       0.00000000       0.00000000       0.00000000       0.00000000       0.00000000
H        0.00000000       0.00000000      14.58243212        1       1.00000000       0.00000000       0.00000000       0.00000000       0.00000000       0.00000000       0.00000000
H        2.80615512       0.00000000      14.58243212        1       1.00000000       0.00000000       0.00000000       0.00000000       0.00000000       0.00000000       0.00000000
H        1.40307756       2.43020162      14.58243212        1       1.00000000       0.00000000       0.00000000       0.00000000       0.00000000       0.00000000       0.00000000
H        4.20923268       2.43020162      14.58243212        1       1.00000000       0.00000000       0.00000000       0.00000000       0.00000000       0.00000000       0.00000000
H        1.41037960       4.05465424      16.79643483        0       1.00000000      -0.00000069       0.00000209       0.00000014       0.00000450       0.00000288      -0.00000105
H        4.20192783       4.05465137      16.79643373        0       1.00000000      -0.00000192      -0.00000236      -0.00000004      -0.00000304      -0.00000277      -0.00000395
H        0.00000045       1.62013387       7.77136829        0       1.00000000       0.00000088      -0.00000149      -0.00000038       0.00000433      -0.00000400       0.00000238
H        5.61231122       3.23913490      19.01551023        0       1.00000000      -0.00000007      -0.00000084       0.00000088       0.00000027      -0.00000024       0.00000367
H        2.80615555       1.62013400       7.77136743        0       1.00000000      -0.00000161      -0.00000149      -0.00000201      -0.00000256      -0.00000771      -0.00000477
H        2.80615286       1.62945983      16.83224281        0       1.00000000      -0.00000204      -0.00000028       0.00000015      -0.00000597       0.00000122      -0.00000106
H        1.40307851       4.05033592       7.77136834        0       1.00000000       0.00000206      -0.00000033       0.00000552      -0.00000277       0.00000881      -0.00000081
H       -0.00000006       1.60388036      16.80115898        0       1.00000000      -0.00000010       0.00000128       0.00000088       0.00000481      -0.00000391      -0.00000413
H        4.20923398       4.05033500       7.77136819        0       1.00000000       0.00000003       0.00000207       0.00000030       0.00000351       0.00000554       0.00000113
21
Lattice="5.612310241546866 0.0 0.0 0.0 4.860403243099165 0.0 0.0 0.0 24.582432123328676" Properties=species:S:1:pos:R:3:tags:I:1:masses:R:1:momenta:R:3:forces:R:3 KEmax=27.14459056223422 iter=218790 volume=670.5618179858607 ns_energy=-14.09023304661576 last_walked_iter_clone=218323 energy=-14.090233046644407 stress="0.021482975968146856 -5.145159717980152e-09 1.286189495238451e-08 -5.145159717980152e-09 0.021542568636155127 5.3839500800410875e-08 1.286189495238451e-08 5.3839500800410875e-08 0.010642624566786309" pbc="T T F"
H        1.40307756       0.81006721      10.00000000        3       1.00000000       0.00000000       0.00000000       0.00000000       0.00000000       0.00000000       0.00000000
H        4.20923268       0.81006721      10.00000000        3       1.00000000       0.00000000       0.00000000       0.00000000       0.00000000       0.00000000       0.00000000
H        0.00000000       3.24026883      10.00000000        3       1.00000000       0.00000000       0.00000000       0.00000000       0.00000000       0.00000000       0.00000000
H        2.80615512       3.24026883      10.00000000        3       1.00000000       0.00000000       0.00000000       0.00000000       0.00000000       0.00000000       0.00000000
H        0.00000000       1.62013441      12.29121606        2       1.00000000       0.00000000       0.00000000       0.00000000       0.00000000       0.00000000       0.00000000
H        2.80615512       1.62013441      12.29121606        2       1.00000000       0.00000000       0.00000000       0.00000000       0.00000000       0.00000000       0.00000000
H        1.40307756       4.05033604      12.29121606        2       1.00000000       0.00000000       0.00000000       0.00000000       0.00000000       0.00000000       0.00000000
H        4.20923268       4.05033604      12.29121606        2       1.00000000       0.00000000       0.00000000       0.00000000       0.00000000       0.00000000       0.00000000
H        0.00000000       0.00000000      14.58243212        1       1.00000000       0.00000000       0.00000000       0.00000000       0.00000000       0.00000000       0.00000000
H        2.80615512       0.00000000      14.58243212        1       1.00000000       0.00000000       0.00000000       0.00000000       0.00000000       0.00000000       0.00000000
H        1.40307756       2.43020162      14.58243212        1       1.00000000       0.00000000       0.00000000       0.00000000       0.00000000       0.00000000       0.00000000
H        4.20923268       2.43020162      14.58243212        1       1.00000000       0.00000000       0.00000000       0.00000000       0.00000000       0.00000000       0.00000000
H        1.41038188       4.05465118      16.79643437        0       1.00000000       0.00000270      -0.00000137       0.00000198       0.00000450       0.00000288      -0.00000105
H        4.20192739       4.05464882      16.79643489        0       1.00000000      -0.00000284      -0.00000109       0.00000047      -0.00000304      -0.00000277      -0.00000395
H        5.61231156       1.62013383       7.77136660        0       1.00000000       0.00000210      -0.00000208       0.00000073       0.00000433      -0.00000400       0.00000238
H        0.00000170       3.23912947      19.01550940        0       1.00000000      -0.00000204       0.00000057      -0.00000325       0.00000027      -0.00000024       0.00000367
H        2.80615608       1.62013343       7.77136794        0       1.00000000       0.00000065       0.00000005       0.00000023      -0.00000256      -0.00000771      -0.00000477
H        2.80615204       1.62945857      16.83224297        0       1.00000000       0.00000122      -0.00000081      -0.00000025      -0.00000597       0.00000122      -0.00000106
H        1.40307894       4.05033422       7.77136619        0       1.00000000       0.00000037       0.00000357       0.00000284      -0.00000277       0.00000881      -0.00000081
H        5.61230790       1.60387641      16.80115639        0       1.00000000      -0.00000089       0.00000034       0.00000340       0.00000481      -0.00000391      -0.00000413
H        4.20923332       4.05033455       7.77136712        0       1.00000000      -0.00000064       0.00000006       0.00000053       0.00000351       0.00000554       0.00000113
21
Lattice="5.612310241546866 0.0 0.0 0.0 4.860403243099165 0.0 0.0 0.0 24.582432123328676" Properties=species:S:1:pos:R:3:tags:I:1:masses:R:1:momenta:R:3:forces:R:3 KEmax=27.14459056223422 iter=218790 volume=670.5618179858607 ns_energy=-14.09023304661411 last_walked_iter_clone=218410 energy=-14.090233046644407 stress="0.021482975968146856 -5.145159717980152e-09 1.286189495238451e-08 -5.145159717980152e-09 0.021542568636155127 5.3839500800410875e-08 1.286189495238451e-08 5.3839500800410875e-08 0.010642624566786309" pbc="T T F"
H        1.40307756       0.81006721      10.00000000        3       1.00000000       0.00000000       0.00000000       0.00000000       0.00000000       0.00000000       0.00000000
H        4.20923268       0.81006721      10.00000000        3       1.00000000       0.00000000       0.00000000       0.00000000       0.00000000       0.00000000       0.00000000
H        0.00000000       3.24026883      10.00000000        3       1.00000000       0.00000000       0.00000000       0.00000000       0.00000000       0.00000000       0.00000000
H        2.80615512       3.24026883      10.00000000        3       1.00000000       0.00000000       0.00000000       0.00000000       0.00000000       0.00000000       0.00000000
H        0.00000000       1.62013441      12.29121606        2       1.00000000       0.00000000       0.00000000       0.00000000       0.00000000       0.00000000       0.00000000
H        2.80615512       1.62013441      12.29121606        2       1.00000000       0.00000000       0.00000000       0.00000000       0.00000000       0.00000000       0.00000000
H        1.40307756       4.05033604      12.29121606        2       1.00000000       0.00000000       0.00000000       0.00000000       0.00000000       0.00000000       0.00000000
H        4.20923268       4.05033604      12.29121606        2       1.00000000       0.00000000       0.00000000       0.00000000       0.00000000       0.00000000       0.00000000
H        0.00000000       0.00000000      14.58243212        1       1.00000000       0.00000000       0.00000000       0.00000000       0.00000000       0.00000000       0.00000000
H        2.80615512       0.00000000      14.58243212        1       1.00000000       0.00000000       0.00000000       0.00000000       0.00000000       0.00000000       0.00000000
H        1.40307756       2.43020162      14.58243212        1       1.00000000       0.00000000       0.00000000       0.00000000       0.00000000       0.00000000       0.00000000
H        4.20923268       2.43020162      14.58243212        1       1.00000000       0.00000000       0.00000000       0.00000000       0.00000000       0.00000000       0.00000000
H        1.41038262       4.05465139      16.79643323        0       1.00000000      -0.00000295       0.00000128       0.00000236       0.00000450       0.00000288      -0.00000105
H        4.20193004       4.05464998      16.79643362        0       1.00000000       0.00000033       0.00000114       0.00000169      -0.00000304      -0.00000277      -0.00000395
H        5.61230907       1.62013478       7.77136767        0       1.00000000       0.00000002       0.00000328       0.00000037       0.00000433      -0.00000400       0.00000238
H        0.00000115       3.23912944      19.01550847        0       1.00000000      -0.00000271      -0.00000013       0.00000038       0.00000027      -0.00000024       0.00000367
H        2.80615229       1.62013551       7.77136850        0       1.00000000       0.00000059       0.00000202       0.00000122      -0.00000256      -0.00000771      -0.00000477
H        2.80615638       1.62946014      16.83224399        0       1.00000000       0.00000027       0.00000119      -0.00000024      -0.00000597       0.00000122      -0.00000106