19
Lattice="5.612310241546866 0.0 0.0 0.0 4.860403243099165 0.0 0.0 0.0 24.582432123328676" Properties=species:S:1:pos:R:3:tags:I:1:masses:R:1:momenta:R:3:forces:R:3 KEmax=24.559391461069055 iter=223051 volume=670.5618179858607 ns_energy=-12.523476320043907 last_walked_iter_clone=222632 energy=-12.523476320049062 stress="0.02400485296948705 1.0709924628151633e-08 -1.986897738886659e-08 1.0709924628151633e-08 0.024132699418794805 1.3106121357683767e-08 -1.986897738886659e-08 1.3106121357683767e-08 0.012739363878719715" pbc="T T F"
H        1.40307756       0.81006721      10.00000000        3       1.00000000       0.00000000       0.00000000       0.00000000       0.00000000       0.00000000       0.00000000
H        4.20923268       0.81006721      10.00000000        3       1.00000000       0.00000000       0.00000000       0.00000000       0.00000000       0.00000000       0.00000000
H        0.00000000       3.24026883      10.00000000        3       1.00000000       0.00000000       0.00000000       0.00000000       0.00000000       0.00000000       0.00000000
H        2.80615512       3.24026883      10.00000000        3       1.00000000       0.00000000       0.00000000       0.00000000       0.00000000       0.00000000       0.00000000
H        0.00000000       1.62013441      12.29121606        2       1.00000000       0.00000000       0.00000000       0.00000000       0.00000000       0.00000000       0.00000000
H        2.80615512       1.62013441      12.29121606        2       1.00000000       0.00000000       0.00000000       0.00000000       0.00000000       0.00000000       0.00000000
H        1.40307756       4.05033604      12.29121606        2       1.00000000       0.00000000       0.00000000       0.00000000       0.00000000       0.00000000       0.00000000
H        4.20923268       4.05033604      12.29121606        2       1.00000000       0.00000000       0.00000000       0.00000000       0.00000000       0.00000000       0.00000000
H        0.00000000       0.00000000      14.58243212        1       1.00000000       0.00000000       0.00000000       0.00000000       0.00000000       0.00000000       0.00000000
H        2.80615512       0.00000000      14.58243212        1       1.00000000       0.00000000       0.00000000       0.00000000       0.00000000       0.00000000       0.00000000
H        1.40307756       2.43020162      14.58243212        1       1.00000000       0.00000000       0.00000000       0.00000000       0.00000000       0.00000000       0.00000000
H        4.20923268       2.43020162      14.58243212        1       1.00000000       0.00000000       0.00000000       0.00000000       0.00000000       0.00000000       0.00000000
H        2.80615471       1.62013527       7.77136751        0       1.00000000       0.00000012      -0.00000066       0.00000088       0.00000048      -0.00000068      -0.00000097
H        4.21227619       4.05032574      16.81107160        0       1.00000000       0.00000042       0.00000012      -0.00000198       0.00000188      -0.00000031      -0.00000078
H        4.20923242       4.05033639       7.77136740        0       1.00000000       0.00000037       0.00000076       0.00000051      -0.00000111       0.00000290      -0.00000120
H        1.40003482       4.05032580      16.81107126        0       1.00000000      -0.00000112      -0.00000053      -0.00000030      -0.00000151      -0.00000011      -0.00000010
H        1.40307699       4.05033699       7.77136736        0       1.00000000       0.00000122       0.00000064      -0.00000038      -0.00000043      -0.00000094      -0.00000061
H        2.80615362       1.62012564      16.81106469        0       1.00000000      -0.00000090       0.00000043       0.00000151      -0.00000027      -0.00000168       0.00000264
H        0.00000000       1.62013460       7.77136684        0       1.00000000      -0.00000053       0.00000021      -0.00000092      -0.00000103      -0.00000188       0.00000174
19
Lattice="5.612310241546866 0.0 0.0 0.0 4.860403243099165 0.0 0.0 0.0 24.582432123328676" Properties=species:S:1:pos:R:3:tags:I:1:masses:R:1:momenta:R:3:forces:R:3 KEmax=24.559391461069055 iter=223051 volume=670.5618179858607 ns_energy=-12.523476320043317 last_walked_iter_clone=222764 energy=-12.523476320049062 stress="0.02400485296948705 1.0709924628151633e-08 -1.986897738886659e-08 1.0709924628151633e-08 0.024132699418794805 1.3106121357683767e-08 -1.986897738886659e-08 1.3106121357683767e-08 0.012739363878719715" pbc="T T F"
H        1.40307756       0.81006721      10.00000000        3       1.00000000       0.00000000       0.00000000       0.00000000       0.00000000       0.00000000       0.00000000
H        4.20923268       0.81006721      10.00000000        3       1.00000000       0.00000000       0.00000000       0.00000000       0.00000000       0.00000000       0.00000000
H        0.00000000       3.24026883      10.00000000        3       1.00000000       0.00000000       0.00000000       0.00000000       0.00000000       0.00000000       0.00000000
H        2.80615512       3.24026883      10.00000000        3       1.00000000       0.00000000       0.00000000       0.00000000       0.00000000       0.00000000       0.00000000
H        0.00000000       1.62013441      12.29121606        2       1.00000000       0.00000000       0.00000000       0.00000000       0.00000000       0.00000000       0.00000000
H        2.80615512       1.62013441      12.29121606        2       1.00000000       0.00000000       0.00000000       0.00000000       0.00000000       0.00000000       0.00000000
H        1.40307756       4.05033604      12.29121606        2       1.00000000       0.00000000       0.00000000       0.00000000       0.00000000       0.00000000       0.00000000
H        4.20923268       4.05033604      12.29121606        2       1.00000000       0.00000000       0.00000000       0.00000000       0.00000000       0.00000000       0.00000000
H        0.00000000       0.00000000      14.58243212        1       1.00000000       0.00000000       0.00000000       0.00000000       0.00000000       0.00000000       0.00000000
H        2.80615512       0.00000000      14.58243212        1       1.00000000       0.00000000       0.00000000       0.00000000       0.00000000       0.00000000       0.00000000
H        1.40307756       2.43020162      14.58243212        1       1.00000000       0.00000000       0.00000000       0.00000000       0.00000000       0.00000000       0.00000000
H        4.20923268       2.43020162      14.58243212        1       1.00000000       0.00000000       0.00000000       0.00000000       0.00000000       0.00000000       0.00000000
H        2.80615619       1.62013523       7.77136745        0       1.00000000       0.00000140      -0.00000073      -0.00000077       0.00000048      -0.00000068      -0.00000097
H        4.21227649       4.05032593      16.81107098        0       1.00000000       0.00000042       0.00000117      -0.00000014       0.00000188      -0.00000031      -0.00000078
H        4.20923308       4.05033665       7.77136728        0       1.00000000      -0.00000172      -0.00000025       0.00000090      -0.00000111       0.00000290      -0.00000120
H        1.40003579       4.05032630      16.81107150        0       1.00000000       0.00000032       0.00000019       0.00000014      -0.00000151      -0.00000011      -0.00000010
H        1.40307793       4.05033652       7.77136712        0       1.00000000       0.00000122      -0.00000076      -0.00000086      -0.00000043      -0.00000094      -0.00000061
H        2.80615622       1.62012576      16.81106522        0       1.00000000       0.00000092      -0.00000014       0.00000003      -0.00000027      -0.00000168       0.00000264
H        5.61231074       1.62013542       7.77136738        0       1.00000000      -0.00000085       0.00000193      -0.00000134      -0.00000103      -0.00000188       0.00000174
19
Lattice="5.612310241546866 0.0 0.0 0.0 4.860403243099165 0.0 0.0 0.0 24.582432123328676" Properties=species:S:1:pos:R:3:tags:I:1:masses:R:1:momenta:R:3:forces:R:3 KEmax=24.559391461069055 iter=223051 volume=670.5618179858607 ns_energy=-12.523476320044002 last_walked_iter_clone=222628 energy=-12.523476320049062 stress="0.02400485296948705 1.0709924628151633e-08 -1.986897738886659e-08 1.0709924628151633e-08 0.024132699418794805 1.3106121357683767e-08 -1.986897738886659e-08 1.3106121357683767e-08 0.012739363878719715" pbc="T T F"
H        1.40307756       0.81006721      10.00000000        3       1.00000000       0.00000000       0.00000000       0.00000000       0.00000000       0.00000000       0.00000000
H        4.20923268       0.81006721      10.00000000        3       1.00000000       0.00000000       0.00000000       0.00000000       0.00000000       0.00000000       0.00000000
H        0.00000000       3.24026883      10.00000000        3       1.00000000       0.00000000       0.00000000       0.00000000       0.00000000       0.00000000       0.00000000
H        2.80615512       3.24026883      10.00000000        3       1.00000000       0.00000000       0.00000000       0.00000000       0.00000000       0.00000000       0.00000000
H        0.00000000       1.62013441      12.29121606        2       1.00000000       0.00000000       0.00000000       0.00000000       0.00000000       0.00000000       0.00000000
H        2.80615512       1.62013441      12.29121606        2       1.00000000       0.00000000       0.00000000       0.00000000       0.00000000       0.00000000       0.00000000
H        1.40307756       4.05033604      12.29121606        2       1.00000000       0.00000000       0.00000000       0.00000000       0.00000000       0.00000000       0.00000000
H        4.20923268       4.05033604      12.29121606        2       1.00000000       0.00000000       0.00000000       0.00000000       0.00000000       0.00000000       0.00000000
H        0.00000000       0.00000000      14.58243212        1       1.00000000       0.00000000       0.00000000       0.00000000       0.00000000       0.00000000       0.00000000
H        2.80615512       0.00000000      14.58243212        1       1.00000000       0.00000000       0.00000000       0.00000000       0.00000000       0.00000000       0.00000000
H        1.40307756       2.43020162      14.58243212        1       1.00000000       0.00000000       0.00000000       0.00000000       0.00000000       0.00000000       0.00000000
H        4.20923268       2.43020162      14.58243212        1       1.00000000       0.00000000       0.00000000       0.00000000       0.00000000       0.00000000       0.00000000
H        2.80615607       1.62013514       7.77136736        0       1.00000000       0.00000105       0.00000136       0.00000057       0.00000048      -0.00000068      -0.00000097
H        4.21227585       4.05032525      16.81107068        0       1.00000000       0.00000179      -0.00000179      -0.00000072       0.00000188      -0.00000031      -0.00000078
H        4.20923352       4.05033633       7.77136725        0       1.00000000      -0.00000058      -0.00000054      -0.00000073      -0.00000111       0.00000290      -0.00000120
H        1.40003474       4.05032544      16.81107119        0       1.00000000      -0.00000020      -0.00000083       0.00000070      -0.00000151      -0.00000011      -0.00000010
H        1.40307845       4.05033603       7.77136735        0       1.00000000       0.00000181      -0.00000010      -0.00000074      -0.00000043      -0.00000094      -0.00000061
H        2.80615544       1.62012607      16.81106470        0       1.00000000       0.00000105       0.00000021      -0.00000050      -0.00000027      -0.00000168       0.00000264
H        0.00000068       1.62013450       7.77136687        0       1.00000000       0.00000011       0.00000000      -0.00000097      -0.00000103      -0.00000188       0.00000174
19
Lattice="5.612310241546866 0.0 0.0 0.0 4.860403243099165 0.0 0.0 0.0 24.582432123328676" Properties=species:S:1:pos:R:3:tags:I:1:masses:R:1:momenta:R:3:forces:R:3 KEmax=24.559391461069055 iter=223051 volume=670.5618179858607 ns_energy=-12.523476320043425 last_walked_iter_clone=221622 energy=-12.523476320049062 stress="0.02400485296948705 1.0709924628151633e-08 -1.986897738886659e-08 1.0709924628151633e-08 0.024132699418794805 1.3106121357683767e-08 -1.986897738886659e-08 1.3106121357683767e-08 0.012739363878719715" pbc="T T F"
H        1.40307756       0.81006721      10.00000000        3       1.00000000       0.00000000       0.00000000       0.00000000       0.00000000       0.00000000       0.00000000
H        4.20923268       0.81006721      10.00000000        3       1.00000000       0.00000000       0.00000000       0.00000000       0.00000000       0.00000000       0.00000000
H        0.00000000       3.24026883      10.00000000        3       1.00000000       0.00000000       0.00000000       0.00000000       0.00000000       0.00000000       0.00000000
H        2.80615512       3.24026883      10.00000000        3       1.00000000       0.00000000       0.00000000       0.00000000       0.00000000       0.00000000       0.00000000
H        0.00000000       1.62013441      12.29121606        2       1.00000000       0.00000000       0.00000000       0.00000000       0.00000000       0.00000000       0.00000000
H        2.80615512       1.62013441      12.29121606        2       1.00000000       0.00000000       0.00000000       0.00000000       0.00000000       0.00000000       0.00000000
H        1.40307756       4.05033604      12.29121606        2       1.00000000       0.00000000       0.00000000       0.00000000       0.00000000       0.00000000       0.00000000
H        4.20923268       4.05033604      12.29121606        2       1.00000000       0.00000000       0.00000000       0.00000000       0.00000000       0.00000000       0.00000000
H        0.00000000       0.00000000      14.58243212        1       1.00000000       0.00000000       0.00000000       0.00000000       0.00000000       0.00000000       0.00000000
H        2.80615512       0.00000000      14.58243212        1       1.00000000       0.00000000       0.00000000       0.00000000       0.00000000       0.00000000       0.00000000
H        1.40307756       2.43020162      14.58243212        1       1.00000000       0.00000000       0.00000000       0.00000000       0.00000000       0.00000000       0.00000000
H        4.20923268       2.43020162      14.58243212        1       1.00000000       0.00000000       0.00000000       0.00000000       0.00000000       0.00000000       0.00000000
H        2.80615617       1.62013514       7.77136744        0       1.00000000       0.00000053      -0.00000160      -0.00000064       0.00000048      -0.00000068      -0.00000097
H        4.21227649       4.05032590      16.81107099        0       1.00000000       0.00000017       0.00000124       0.00000122       0.00000188      -0.00000031      -0.00000078
H        4.20923308       4.05033680       7.77136731        0       1.00000000      -0.00000162       0.00000040       0.00000203      -0.00000111       0.00000290      -0.00000120
H        1.40003578       4.05032630      16.81107152        0       1.00000000       0.00000044       0.00000094       0.00000079      -0.00000151      -0.00000011      -0.00000010
H        1.40307791       4.05033638       7.77136711        0       1.00000000       0.00000013      -0.00000015      -0.00000083      -0.00000043      -0.00000094      -0.00000061
H        2.80615635       1.62012574      16.81106521        0       1.00000000       0.00000086       0.00000085      -0.00000015      -0.00000027      -0.00000168       0.00000264
H        5.61231071       1.62013543       7.77136739        0       1.00000000       0.00000045       0.00000078      -0.00000042      -0.00000103      -0.00000188       0.00000174
19
Lattice="5.612310241546866 0.0 0.0 0.0 4.860403243099165 0.0 0.0 0.0 24.582432123328676" Properties=species:S:1:pos:R:3:tags:I:1:masses:R:1:momenta:R:3:forces:R:3 KEmax=24.559391461069055 iter=223051 volume=670.5618179858607 ns_energy=-12.523476320043546 last_walked_iter_clone=223029 energy=-12.523476320049062 stress="0.02400485296948705 1.0709924628151633e-08 -1.986897738886659e-08 1.0709924628151633e-08 0.024132699418794805 1.3106121357683767e-08 -1.986897738886659e-08 1.3106121357683767e-08 0.012739363878719715" pbc="T T F"
H        1.40307756       0.81006721      10.00000000        3       1.00000000       0.00000000       0.00000000       0.00000000       0.00000000       0.00000000       0.00000000
H        4.20923268       0.81006721      10.00000000        3       1.00000000       0.00000000       0.00000000       0.00000000       0.00000000       0.00000000       0.00000000
H        0.00000000       3.24026883      10.00000000        3       1.00000000       0.00000000       0.00000000       0.00000000       0.00000000       0.00000000       0.00000000
H        2.80615512       3.24026883      10.00000000        3       1.00000000       0.00000000       0.00000000       0.00000000       0.00000000       0.00000000       0.00000000
H        0.00000000       1.62013441      12.29121606        2       1.00000000       0.00000000       0.00000000       0.00000000       0.00000000       0.00000000       0.00000000
H        2.80615512       1.62013441      12.29121606        2       1.00000000       0.00000000       0.00000000       0.00000000       0.00000000       0.00000000       0.00000000
H        1.40307756       4.05033604      12.29121606        2       1.00000000       0.00000000       0.00000000       0.00000000       0.00000000       0.00000000       0.00000000
H        4.20923268       4.05033604      12.29121606        2       1.00000000       0.00000000       0.00000000       0.00000000       0.00000000       0.00000000       0.00000000
H        0.00000000       0.00000000      14.58243212        1       1.00000000       0.00000000       0.00000000       0.00000000       0.00000000       0.00000000       0.00000000
H        2.80615512       0.00000000      14.58243212        1       1.00000000       0.00000000       0.00000000       0.00000000       0.00000000       0.00000000       0.00000000
H        1.40307756       2.43020162      14.58243212        1       1.00000000       0.00000000       0.00000000       0.00000000       0.00000000       0.00000000       0.00000000
H        4.20923268       2.43020162      14.58243212        1       1.00000000       0.00000000       0.00000000       0.00000000       0.00000000       0.00000000       0.00000000
H        2.80615502       1.62013454       7.77136705        0       1.00000000       0.00000023      -0.00000040      -0.00000039       0.00000048      -0.00000068      -0.00000097
H        4.21227652       4.05032563      16.81107071        0       1.00000000       0.00000040       0.00000106       0.00000004       0.00000188      -0.00000031      -0.00000078
H        4.20923304       4.05033651       7.77136678        0       1.00000000      -0.00000121       0.00000044       0.00000068      -0.00000111       0.00000290      -0.00000120
H        1.40003470       4.05032693      16.81107104        0       1.00000000      -0.00000000       0.00000074       0.00000114      -0.00000151      -0.00000011      -0.00000010
H        1.40307745       4.05033673       7.77136734        0       1.00000000      -0.00000196       0.00000029      -0.00000149      -0.00000043      -0.00000094      -0.00000061
H        2.80615656       1.62012703      16.81106441        0       1.00000000       0.00000002      -0.00000018       0.00000102      -0.00000027      -0.00000168       0.00000264
H        5.61231057       1.62013467       7.77136693        0       1.00000000       0.00000009      -0.00000026      -0.00000115      -0.00000103      -0.00000188       0.00000174
19
Lattice="5.612310241546866 0.0 0.0 0.0 4.860403243099165 0.0 0.0 0.0 24.582432123328676" Properties=species:S:1:pos:R:3:tags:I:1:masses:R:1:momenta:R:3:forces:R:3 KEmax=24.559391461069055 iter=223051 volume=670.5618179858607 ns_energy=-12.523476320043438 last_walked_iter_clone=222946 energy=-12.523476320049062 stress="0.02400485296948705 1.0709924628151633e-08 -1.986897738886659e-08 1.0709924628151633e-08 0.024132699418794805 1.3106121357683767e-08 -1.986897738886659e-08 1.3106121357683767e-08 0.012739363878719715" pbc="T T F"
H        1.40307756       0.81006721      10.00000000        3       1.00000000       0.00000000       0.00000000       0.00000000       0.00000000       0.00000000       0.00000000
H        4.20923268       0.81006721      10.00000000        3       1.00000000       0.00000000       0.00000000       0.00000000       0.00000000       0.00000000       0.00000000
H        0.00000000       3.24026883      10.00000000        3       1.00000000       0.00000000       0.00000000       0.00000000       0.00000000       0.00000000       0.00000000
H        2.80615512       3.24026883      10.00000000        3       1.00000000       0.00000000       0.00000000       0.00000000       0.00000000       0.00000000       0.00000000
H        0.00000000       1.62013441      12.29121606        2       1.00000000       0.00000000       0.00000000       0.00000000       0.00000000       0.00000000       0.00000000
H        2.80615512       1.62013441      12.29121606        2       1.00000000       0.00000000       0.00000000       0.00000000       0.00000000       0.00000000       0.00000000
H        1.40307756       4.05033604      12.29121606        2       1.00000000       0.00000000       0.00000000       0.00000000       0.00000000       0.00000000       0.00000000
H        4.20923268       4.05033604      12.29121606        2       1.00000000       0.00000000       0.00000000       0.00000000       0.00000000       0.00000000       0.00000000
H        0.00000000       0.00000000      14.58243212        1       1.00000000       0.00000000       0.00000000       0.00000000       0.00000000       0.00000000       0.00000000
H        2.80615512       0.00000000      14.58243212        1       1.00000000       0.00000000       0.00000000       0.00000000       0.00000000       0.00000000       0.00000000
H        1.40307756       2.43020162      14.58243212        1       1.00000000       0.00000000       0.00000000       0.00000000       0.00000000       0.00000000       0.00000000
H        4.20923268       2.43020162      14.58243212        1       1.00000000       0.00000000       0.00000000       0.00000000       0.00000000       0.00000000       0.00000000
H        2.80615616       1.62013537       7.77136719        0       1.00000000       0.00000054       0.00000159       0.00000030       0.00000048      -0.00000068      -0.00000097
H        4.21227591       4.05032675      16.81107071        0       1.00000000      -0.00000006      -0.00000025       0.00000091       0.00000188      -0.00000031      -0.00000078
H        4.20923327       4.05033655       7.77136743        0       1.00000000       0.00000166       0.00000118       0.00000010      -0.00000111       0.00000290      -0.00000120
H        1.40003528       4.05032631      16.81107084        0       1.00000000       0.00000077       0.00000014       0.00000097      -0.00000151      -0.00000011      -0.00000010
H        1.40307884       4.05033646       7.77136658        0       1.00000000      -0.00000038      -0.00000118      -0.00000035      -0.00000043      -0.00000094      -0.00000061
H        2.80615578       1.62012710      16.81106422        0       1.00000000       0.00000012       0.00000069       0.00000045      -0.00000027      -0.00000168       0.00000264
H        0.00000072       1.62013396       7.77136703        0       1.00000000       0.00000073      -0.00000116       0.00000043      -0.00000103      -0.00000188       0.00000174
19
Lattice="5.612310241546866 0.0 0.0 0.0 4.860403243099165 0.0 0.0 0.0 24.582432123328676" Properties=species:S:1:pos:R:3:tags:I:1:masses:R:1:momenta:R:3:forces:R:3 KEmax=24.559391461069055 iter=223051 volume=670.5618179858607 ns_energy=-12.523476320043457 last_walked_iter_clone=221794 energy=-12.523476320049062 stress="0.02400485296948705 1.0709924628151633e-08 -1.986897738886659e-08 1.0709924628151633e-08 0.024132699418794805 1.3106121357683767e-08 -1.986897738886659e-08 1.3106121357683767e-08 0.012739363878719715" pbc="T T F"
H        1.40307756       0.81006721      10.00000000        3       1.00000000       0.00000000       0.00000000       0.00000000       0.00000000       0.00000000       0.00000000
H        4.20923268       0.81006721      10.00000000        3       1.00000000       0.00000000       0.00000000       0.00000000       0.00000000       0.00000000       0.00000000
H        0.00000000       3.24026883      10.00000000        3       1.00000000       0.00000000       0.00000000       0.00000000       0.00000000       0.00000000       0.00000000
H        2.80615512       3.24026883      10.00000000        3       1.00000000       0.00000000       0.00000000       0.00000000       0.00000000       0.00000000       0.00000000
H        0.00000000       1.62013441      12.29121606        2       1.00000000       0.00000000       0.00000000       0.00000000       0.00000000       0.00000000       0.00000000
H        2.80615512       1.62013441      12.29121606        2       1.00000000       0.00000000       0.00000000       0.00000000       0.00000000       0.00000000       0.00000000
H        1.40307756       4.05033604      12.29121606        2       1.00000000       0.00000000       0.00000000       0.00000000       0.00000000       0.00000000       0.00000000
H        4.20923268       4.05033604      12.29121606        2       1.00000000       0.00000000       0.00000000       0.00000000       0.00000000       0.00000000       0.00000000
H        0.00000000       0.00000000      14.58243212        1       1.00000000       0.00000000       0.00000000       0.00000000       0.00000000       0.00000000       0.00000000
H        2.80615512       0.00000000      14.58243212        1       1.00000000       0.00000000       0.00000000       0.00000000       0.00000000       0.00000000       0.00000000
H        1.40307756       2.43020162      14.58243212        1       1.00000000       0.00000000       0.00000000       0.00000000       0.00000000       0.00000000       0.00000000
H        4.20923268       2.43020162      14.58243212        1       1.00000000       0.00000000       0.00000000       0.00000000       0.00000000       0.00000000       0.00000000
H        2.80615503       1.62013398       7.77136650        0       1.00000000      -0.00000022       0.00000000      -0.00000038       0.00000048      -0.00000068      -0.00000097
H        4.21227522       4.05032711      16.81107064        0       1.00000000      -0.00000072       0.00000065      -0.00000024       0.00000188      -0.00000031      -0.00000078
H        4.20923228       4.05033567       7.77136805        0       1.00000000       0.00000062       0.00000061      -0.00000058      -0.00000111       0.00000290      -0.00000120
H        1.40003489       4.05032756      16.81107091        0       1.00000000      -0.00000166       0.00000024       0.00000060      -0.00000151      -0.00000011      -0.00000010
H        1.40307607       4.05033569       7.77136671        0       1.00000000      -0.00000058      -0.00000051       0.00000037      -0.00000043      -0.00000094      -0.00000061
H        2.80615450       1.62012685      16.81106584        0       1.00000000       0.00000065       0.00000087      -0.00000137      -0.00000027      -0.00000168       0.00000264
H        5.61231032       1.62013380       7.77136713        0       1.00000000       0.00000067       0.00000053      -0.00000045      -0.00000103      -0.00000188       0.00000174
19
Lattice="5.612310241546866 0.0 0.0 0.0 4.860403243099165 0.0 0.0 0.0 24.582432123328676" Properties=species:S:1:pos:R:3:tags:I:1:masses:R:1:momenta:R:3:forces:R:3 KEmax=24.559391461069055 iter=223051 volume=670.5618179858607 ns_energy=-12.523476320043683 last_walked_iter_clone=222639 energy=-12.523476320049062 stress="0.02400485296948705 1.0709924628151633e-08 -1.986897738886659e-08 1.0709924628151633e-08 0.024132699418794805 1.3106121357683767e-08 -1.986897738886659e-08 1.3106121357683767e-08 0.012739363878719715" pbc="T T F"
H        1.40307756       0.81006721      10.00000000        3       1.00000000       0.00000000       0.00000000       0.00000000       0.00000000       0.00000000       0.00000000
H        4.20923268       0.81006721      10.00000000        3       1.00000000       0.00000000       0.00000000       0.00000000       0.00000000       0.00000000       0.00000000
H        0.00000000       3.24026883      10.00000000        3       1.00000000       0.00000000       0.00000000       0.00000000       0.00000000       0.00000000       0.00000000
H        2.80615512       3.24026883      10.00000000        3       1.00000000       0.00000000       0.00000000       0.00000000       0.00000000       0.00000000       0.00000000
H        0.00000000       1.62013441      12.29121606        2       1.00000000       0.00000000       0.00000000       0.00000000       0.00000000       0.00000000       0.00000000
H        2.80615512       1.62013441      12.29121606        2       1.00000000       0.00000000       0.00000000       0.00000000       0.00000000       0.00000000       0.00000000
H        1.40307756       4.05033604      12.29121606        2       1.00000000       0.00000000       0.00000000       0.00000000       0.00000000       0.00000000       0.00000000
H        4.20923268       4.05033604      12.29121606        2       1.00000000       0.00000000       0.00000000       0.00000000       0.00000000       0.00000000       0.00000000