19
Lattice="5.612310241546866 0.0 0.0 0.0 4.860403243099165 0.0 0.0 0.0 24.582432123328676" Properties=species:S:1:pos:R:3:tags:I:1:masses:R:1:momenta:R:3:forces:R:3 KEmax=24.559391461069055 iter=189779 volume=670.5618179858607 ns_energy=-12.523476319950193 last_walked_iter_clone=189348 energy=-12.523476320006667 stress="0.024004914479326313 1.9155540270905734e-09 -1.266750387790177e-08 1.9155540270905734e-09 0.02413271359842944 -4.4638022930670436e-08 -1.266750387790177e-08 -4.4638022930670436e-08 0.012739480578438218" pbc="T T F"
H        1.40307756       0.81006721      10.00000000        3       1.00000000       0.00000000       0.00000000       0.00000000       0.00000000       0.00000000       0.00000000
H        4.20923268       0.81006721      10.00000000        3       1.00000000       0.00000000       0.00000000       0.00000000       0.00000000       0.00000000       0.00000000
H        0.00000000       3.24026883      10.00000000        3       1.00000000       0.00000000       0.00000000       0.00000000       0.00000000       0.00000000       0.00000000
H        2.80615512       3.24026883      10.00000000        3       1.00000000       0.00000000       0.00000000       0.00000000       0.00000000       0.00000000       0.00000000
H        0.00000000       1.62013441      12.29121606        2       1.00000000       0.00000000       0.00000000       0.00000000       0.00000000       0.00000000       0.00000000
H        2.80615512       1.62013441      12.29121606        2       1.00000000       0.00000000       0.00000000       0.00000000       0.00000000       0.00000000       0.00000000
H        1.40307756       4.05033604      12.29121606        2       1.00000000       0.00000000       0.00000000       0.00000000       0.00000000       0.00000000       0.00000000
H        4.20923268       4.05033604      12.29121606        2       1.00000000       0.00000000       0.00000000       0.00000000       0.00000000       0.00000000       0.00000000
H        0.00000000       0.00000000      14.58243212        1       1.00000000       0.00000000       0.00000000       0.00000000       0.00000000       0.00000000       0.00000000
H        2.80615512       0.00000000      14.58243212        1       1.00000000       0.00000000       0.00000000       0.00000000       0.00000000       0.00000000       0.00000000
H        1.40307756       2.43020162      14.58243212        1       1.00000000       0.00000000       0.00000000       0.00000000       0.00000000       0.00000000       0.00000000
H        4.20923268       2.43020162      14.58243212        1       1.00000000       0.00000000       0.00000000       0.00000000       0.00000000       0.00000000       0.00000000
H        2.80615400       1.62013362       7.77136679        0       1.00000000      -0.00000214       0.00000443       0.00000096       0.00000088      -0.00000079       0.00000536
H        4.21227716       4.05032552      16.81106948        0       1.00000000       0.00000215       0.00000044       0.00000569      -0.00000103      -0.00000023      -0.00000300
H        4.20923320       4.05033676       7.77136648        0       1.00000000       0.00000106      -0.00000110      -0.00000276       0.00000024      -0.00000109       0.00000681
H        1.40003524       4.05032750      16.81107123        0       1.00000000       0.00000182       0.00000098       0.00000033       0.00000362      -0.00000130       0.00000041
H        1.40307967       4.05033531       7.77136708        0       1.00000000       0.00000100       0.00000067      -0.00000082      -0.00000463       0.00000778      -0.00000206
H        2.80615651       1.62012743      16.81106459        0       1.00000000       0.00000307       0.00000559       0.00000260      -0.00000228       0.00000543       0.00000391
H       -0.00000192       1.62013404       7.77136722        0       1.00000000       0.00000041       0.00000186       0.00000437       0.00000242      -0.00000687       0.00000150
19
Lattice="5.612310241546866 0.0 0.0 0.0 4.860403243099165 0.0 0.0 0.0 24.582432123328676" Properties=species:S:1:pos:R:3:tags:I:1:masses:R:1:momenta:R:3:forces:R:3 KEmax=24.559391461069055 iter=189779 volume=670.5618179858607 ns_energy=-12.523476319950179 last_walked_iter_clone=189284 energy=-12.523476320006667 stress="0.024004914479326313 1.9155540270905734e-09 -1.266750387790177e-08 1.9155540270905734e-09 0.02413271359842944 -4.4638022930670436e-08 -1.266750387790177e-08 -4.4638022930670436e-08 0.012739480578438218" pbc="T T F"
H        1.40307756       0.81006721      10.00000000        3       1.00000000       0.00000000       0.00000000       0.00000000       0.00000000       0.00000000       0.00000000
H        4.20923268       0.81006721      10.00000000        3       1.00000000       0.00000000       0.00000000       0.00000000       0.00000000       0.00000000       0.00000000
H        0.00000000       3.24026883      10.00000000        3       1.00000000       0.00000000       0.00000000       0.00000000       0.00000000       0.00000000       0.00000000
H        2.80615512       3.24026883      10.00000000        3       1.00000000       0.00000000       0.00000000       0.00000000       0.00000000       0.00000000       0.00000000
H        0.00000000       1.62013441      12.29121606        2       1.00000000       0.00000000       0.00000000       0.00000000       0.00000000       0.00000000       0.00000000
H        2.80615512       1.62013441      12.29121606        2       1.00000000       0.00000000       0.00000000       0.00000000       0.00000000       0.00000000       0.00000000
H        1.40307756       4.05033604      12.29121606        2       1.00000000       0.00000000       0.00000000       0.00000000       0.00000000       0.00000000       0.00000000
H        4.20923268       4.05033604      12.29121606        2       1.00000000       0.00000000       0.00000000       0.00000000       0.00000000       0.00000000       0.00000000
H        0.00000000       0.00000000      14.58243212        1       1.00000000       0.00000000       0.00000000       0.00000000       0.00000000       0.00000000       0.00000000
H        2.80615512       0.00000000      14.58243212        1       1.00000000       0.00000000       0.00000000       0.00000000       0.00000000       0.00000000       0.00000000
H        1.40307756       2.43020162      14.58243212        1       1.00000000       0.00000000       0.00000000       0.00000000       0.00000000       0.00000000       0.00000000
H        4.20923268       2.43020162      14.58243212        1       1.00000000       0.00000000       0.00000000       0.00000000       0.00000000       0.00000000       0.00000000
H        2.80615672       1.62013148       7.77136792        0       1.00000000       0.00000035       0.00000130       0.00000154       0.00000088      -0.00000079       0.00000536
H        4.21227638       4.05032527      16.81107135        0       1.00000000      -0.00000254       0.00000113       0.00000244      -0.00000103      -0.00000023      -0.00000300
H        4.20923379       4.05033342       7.77136610        0       1.00000000      -0.00000118       0.00000257       0.00000374       0.00000024      -0.00000109       0.00000681
H        1.40003396       4.05032594      16.81106834        0       1.00000000      -0.00000471       0.00000006       0.00000460       0.00000362      -0.00000130       0.00000041
H        1.40307997       4.05033320       7.77136695        0       1.00000000       0.00000382       0.00000011      -0.00000320      -0.00000463       0.00000778      -0.00000206
H        2.80615525       1.62012746      16.81106567        0       1.00000000       0.00000089       0.00000045      -0.00000165      -0.00000228       0.00000543       0.00000391
H        5.61231178       1.62013347       7.77136448        0       1.00000000       0.00000043      -0.00000077      -0.00000289       0.00000242      -0.00000687       0.00000150
19
Lattice="5.612310241546866 0.0 0.0 0.0 4.860403243099165 0.0 0.0 0.0 24.582432123328676" Properties=species:S:1:pos:R:3:tags:I:1:masses:R:1:momenta:R:3:forces:R:3 KEmax=24.559391461069055 iter=189779 volume=670.5618179858607 ns_energy=-12.523476319950937 last_walked_iter_clone=189666 energy=-12.523476320006667 stress="0.024004914479326313 1.9155540270905734e-09 -1.266750387790177e-08 1.9155540270905734e-09 0.02413271359842944 -4.4638022930670436e-08 -1.266750387790177e-08 -4.4638022930670436e-08 0.012739480578438218" pbc="T T F"
H        1.40307756       0.81006721      10.00000000        3       1.00000000       0.00000000       0.00000000       0.00000000       0.00000000       0.00000000       0.00000000
H        4.20923268       0.81006721      10.00000000        3       1.00000000       0.00000000       0.00000000       0.00000000       0.00000000       0.00000000       0.00000000
H        0.00000000       3.24026883      10.00000000        3       1.00000000       0.00000000       0.00000000       0.00000000       0.00000000       0.00000000       0.00000000
H        2.80615512       3.24026883      10.00000000        3       1.00000000       0.00000000       0.00000000       0.00000000       0.00000000       0.00000000       0.00000000
H        0.00000000       1.62013441      12.29121606        2       1.00000000       0.00000000       0.00000000       0.00000000       0.00000000       0.00000000       0.00000000
H        2.80615512       1.62013441      12.29121606        2       1.00000000       0.00000000       0.00000000       0.00000000       0.00000000       0.00000000       0.00000000
H        1.40307756       4.05033604      12.29121606        2       1.00000000       0.00000000       0.00000000       0.00000000       0.00000000       0.00000000       0.00000000
H        4.20923268       4.05033604      12.29121606        2       1.00000000       0.00000000       0.00000000       0.00000000       0.00000000       0.00000000       0.00000000
H        0.00000000       0.00000000      14.58243212        1       1.00000000       0.00000000       0.00000000       0.00000000       0.00000000       0.00000000       0.00000000
H        2.80615512       0.00000000      14.58243212        1       1.00000000       0.00000000       0.00000000       0.00000000       0.00000000       0.00000000       0.00000000
H        1.40307756       2.43020162      14.58243212        1       1.00000000       0.00000000       0.00000000       0.00000000       0.00000000       0.00000000       0.00000000
H        4.20923268       2.43020162      14.58243212        1       1.00000000       0.00000000       0.00000000       0.00000000       0.00000000       0.00000000       0.00000000
H        2.80615822       1.62013592       7.77136797        0       1.00000000      -0.00000556      -0.00000077       0.00000300       0.00000088      -0.00000079       0.00000536
H        4.21227521       4.05032526      16.81107287        0       1.00000000      -0.00000106      -0.00000576       0.00000111      -0.00000103      -0.00000023      -0.00000300
H        4.20923342       4.05033750       7.77136618        0       1.00000000       0.00000418      -0.00000005       0.00000068       0.00000024      -0.00000109       0.00000681
H        1.40003594       4.05032542      16.81107119        0       1.00000000       0.00000359      -0.00000036       0.00000102       0.00000362      -0.00000130       0.00000041
H        1.40307832       4.05033594       7.77136746        0       1.00000000      -0.00000140      -0.00000165       0.00000089      -0.00000463       0.00000778      -0.00000206
H        2.80615751       1.62012456      16.81106512        0       1.00000000       0.00000151      -0.00000106       0.00000080      -0.00000228       0.00000543       0.00000391
H        5.61231221       1.62013236       7.77136651        0       1.00000000      -0.00000100      -0.00000149       0.00000040       0.00000242      -0.00000687       0.00000150
19
Lattice="5.612310241546866 0.0 0.0 0.0 4.860403243099165 0.0 0.0 0.0 24.582432123328676" Properties=species:S:1:pos:R:3:tags:I:1:masses:R:1:momenta:R:3:forces:R:3 KEmax=24.559391461069055 iter=189779 volume=670.5618179858607 ns_energy=-12.523476319951492 last_walked_iter_clone=189564 energy=-12.523476320006667 stress="0.024004914479326313 1.9155540270905734e-09 -1.266750387790177e-08 1.9155540270905734e-09 0.02413271359842944 -4.4638022930670436e-08 -1.266750387790177e-08 -4.4638022930670436e-08 0.012739480578438218" pbc="T T F"
H        1.40307756       0.81006721      10.00000000        3       1.00000000       0.00000000       0.00000000       0.00000000       0.00000000       0.00000000       0.00000000
H        4.20923268       0.81006721      10.00000000        3       1.00000000       0.00000000       0.00000000       0.00000000       0.00000000       0.00000000       0.00000000
H        0.00000000       3.24026883      10.00000000        3       1.00000000       0.00000000       0.00000000       0.00000000       0.00000000       0.00000000       0.00000000
H        2.80615512       3.24026883      10.00000000        3       1.00000000       0.00000000       0.00000000       0.00000000       0.00000000       0.00000000       0.00000000
H        0.00000000       1.62013441      12.29121606        2       1.00000000       0.00000000       0.00000000       0.00000000       0.00000000       0.00000000       0.00000000
H        2.80615512       1.62013441      12.29121606        2       1.00000000       0.00000000       0.00000000       0.00000000       0.00000000       0.00000000       0.00000000
H        1.40307756       4.05033604      12.29121606        2       1.00000000       0.00000000       0.00000000       0.00000000       0.00000000       0.00000000       0.00000000
H        4.20923268       4.05033604      12.29121606        2       1.00000000       0.00000000       0.00000000       0.00000000       0.00000000       0.00000000       0.00000000
H        0.00000000       0.00000000      14.58243212        1       1.00000000       0.00000000       0.00000000       0.00000000       0.00000000       0.00000000       0.00000000
H        2.80615512       0.00000000      14.58243212        1       1.00000000       0.00000000       0.00000000       0.00000000       0.00000000       0.00000000       0.00000000
H        1.40307756       2.43020162      14.58243212        1       1.00000000       0.00000000       0.00000000       0.00000000       0.00000000       0.00000000       0.00000000
H        4.20923268       2.43020162      14.58243212        1       1.00000000       0.00000000       0.00000000       0.00000000       0.00000000       0.00000000       0.00000000
H        2.80615383       1.62013501       7.77136532        0       1.00000000      -0.00000009      -0.00000014      -0.00000272       0.00000088      -0.00000079       0.00000536
H        4.21227761       4.05032396      16.81107136        0       1.00000000      -0.00000352       0.00000076      -0.00000058      -0.00000103      -0.00000023      -0.00000300
H        4.20923124       4.05033668       7.77136910        0       1.00000000      -0.00000004       0.00000079      -0.00000024       0.00000024      -0.00000109       0.00000681
H        1.40003664       4.05032595      16.81106803        0       1.00000000       0.00000293       0.00000208       0.00000259       0.00000362      -0.00000130       0.00000041
H        1.40307442       4.05033525       7.77136749        0       1.00000000      -0.00000012       0.00000237      -0.00000103      -0.00000463       0.00000778      -0.00000206
H        2.80615552       1.62012532      16.81106523        0       1.00000000       0.00000066      -0.00000298      -0.00000157      -0.00000228       0.00000543       0.00000391
H        5.61230626       1.62013464       7.77136450        0       1.00000000       0.00000462       0.00000319      -0.00000033       0.00000242      -0.00000687       0.00000150
19
Lattice="5.612310241546866 0.0 0.0 0.0 4.860403243099165 0.0 0.0 0.0 24.582432123328676" Properties=species:S:1:pos:R:3:tags:I:1:masses:R:1:momenta:R:3:forces:R:3 KEmax=24.559391461069055 iter=189779 volume=670.5618179858607 ns_energy=-12.523476319950234 last_walked_iter_clone=188950 energy=-12.523476320006667 stress="0.024004914479326313 1.9155540270905734e-09 -1.266750387790177e-08 1.9155540270905734e-09 0.02413271359842944 -4.4638022930670436e-08 -1.266750387790177e-08 -4.4638022930670436e-08 0.012739480578438218" pbc="T T F"
H        1.40307756       0.81006721      10.00000000        3       1.00000000       0.00000000       0.00000000       0.00000000       0.00000000       0.00000000       0.00000000
H        4.20923268       0.81006721      10.00000000        3       1.00000000       0.00000000       0.00000000       0.00000000       0.00000000       0.00000000       0.00000000
H        0.00000000       3.24026883      10.00000000        3       1.00000000       0.00000000       0.00000000       0.00000000       0.00000000       0.00000000       0.00000000
H        2.80615512       3.24026883      10.00000000        3       1.00000000       0.00000000       0.00000000       0.00000000       0.00000000       0.00000000       0.00000000
H        0.00000000       1.62013441      12.29121606        2       1.00000000       0.00000000       0.00000000       0.00000000       0.00000000       0.00000000       0.00000000
H        2.80615512       1.62013441      12.29121606        2       1.00000000       0.00000000       0.00000000       0.00000000       0.00000000       0.00000000       0.00000000
H        1.40307756       4.05033604      12.29121606        2       1.00000000       0.00000000       0.00000000       0.00000000       0.00000000       0.00000000       0.00000000
H        4.20923268       4.05033604      12.29121606        2       1.00000000       0.00000000       0.00000000       0.00000000       0.00000000       0.00000000       0.00000000
H        0.00000000       0.00000000      14.58243212        1       1.00000000       0.00000000       0.00000000       0.00000000       0.00000000       0.00000000       0.00000000
H        2.80615512       0.00000000      14.58243212        1       1.00000000       0.00000000       0.00000000       0.00000000       0.00000000       0.00000000       0.00000000
H        1.40307756       2.43020162      14.58243212        1       1.00000000       0.00000000       0.00000000       0.00000000       0.00000000       0.00000000       0.00000000
H        4.20923268       2.43020162      14.58243212        1       1.00000000       0.00000000       0.00000000       0.00000000       0.00000000       0.00000000       0.00000000
H        2.80615591       1.62013583       7.77136579        0       1.00000000      -0.00000235      -0.00000372       0.00000207       0.00000088      -0.00000079       0.00000536
H        4.21227356       4.05032724      16.81107120        0       1.00000000      -0.00000408       0.00000236      -0.00000248      -0.00000103      -0.00000023      -0.00000300
H        4.20923307       4.05033897       7.77136519        0       1.00000000      -0.00000357       0.00000080       0.00000042       0.00000024      -0.00000109       0.00000681
H        1.40003222       4.05032921      16.81106976        0       1.00000000       0.00000044       0.00000206       0.00000226       0.00000362      -0.00000130       0.00000041
H        1.40307810       4.05033879       7.77136862        0       1.00000000      -0.00000383       0.00000216      -0.00000117      -0.00000463       0.00000778      -0.00000206
H        2.80615546       1.62012809      16.81106713        0       1.00000000      -0.00000309      -0.00000008       0.00000314      -0.00000228       0.00000543       0.00000391
H        0.00000127       1.62013486       7.77136773        0       1.00000000       0.00000027      -0.00000210      -0.00000044       0.00000242      -0.00000687       0.00000150
19
Lattice="5.612310241546866 0.0 0.0 0.0 4.860403243099165 0.0 0.0 0.0 24.582432123328676" Properties=species:S:1:pos:R:3:tags:I:1:masses:R:1:momenta:R:3:forces:R:3 KEmax=24.559391461069055 iter=189779 volume=670.5618179858607 ns_energy=-12.52347631995138 last_walked_iter_clone=189454 energy=-12.523476320006667 stress="0.024004914479326313 1.9155540270905734e-09 -1.266750387790177e-08 1.9155540270905734e-09 0.02413271359842944 -4.4638022930670436e-08 -1.266750387790177e-08 -4.4638022930670436e-08 0.012739480578438218" pbc="T T F"
H        1.40307756       0.81006721      10.00000000        3       1.00000000       0.00000000       0.00000000       0.00000000       0.00000000       0.00000000       0.00000000
H        4.20923268       0.81006721      10.00000000        3       1.00000000       0.00000000       0.00000000       0.00000000       0.00000000       0.00000000       0.00000000
H        0.00000000       3.24026883      10.00000000        3       1.00000000       0.00000000       0.00000000       0.00000000       0.00000000       0.00000000       0.00000000
H        2.80615512       3.24026883      10.00000000        3       1.00000000       0.00000000       0.00000000       0.00000000       0.00000000       0.00000000       0.00000000
H        0.00000000       1.62013441      12.29121606        2       1.00000000       0.00000000       0.00000000       0.00000000       0.00000000       0.00000000       0.00000000
H        2.80615512       1.62013441      12.29121606        2       1.00000000       0.00000000       0.00000000       0.00000000       0.00000000       0.00000000       0.00000000
H        1.40307756       4.05033604      12.29121606        2       1.00000000       0.00000000       0.00000000       0.00000000       0.00000000       0.00000000       0.00000000
H        4.20923268       4.05033604      12.29121606        2       1.00000000       0.00000000       0.00000000       0.00000000       0.00000000       0.00000000       0.00000000
H        0.00000000       0.00000000      14.58243212        1       1.00000000       0.00000000       0.00000000       0.00000000       0.00000000       0.00000000       0.00000000
H        2.80615512       0.00000000      14.58243212        1       1.00000000       0.00000000       0.00000000       0.00000000       0.00000000       0.00000000       0.00000000
H        1.40307756       2.43020162      14.58243212        1       1.00000000       0.00000000       0.00000000       0.00000000       0.00000000       0.00000000       0.00000000
H        4.20923268       2.43020162      14.58243212        1       1.00000000       0.00000000       0.00000000       0.00000000       0.00000000       0.00000000       0.00000000
H        2.80615482       1.62013749       7.77136750        0       1.00000000       0.00000060       0.00000487      -0.00000151       0.00000088      -0.00000079       0.00000536
H        4.21227655       4.05032615      16.81106975        0       1.00000000       0.00000184       0.00000099       0.00000285      -0.00000103      -0.00000023      -0.00000300
H        4.20923183       4.05033818       7.77136813        0       1.00000000      -0.00000253      -0.00000247       0.00000151       0.00000024      -0.00000109       0.00000681
H        1.40003559       4.05032077      16.81107150        0       1.00000000      -0.00000081       0.00000087      -0.00000008       0.00000362      -0.00000130       0.00000041
H        1.40307581       4.05033728       7.77136589        0       1.00000000       0.00000064       0.00000011      -0.00000106      -0.00000463       0.00000778      -0.00000206
H        2.80615957       1.62012484      16.81106733        0       1.00000000      -0.00000007       0.00000037      -0.00000015      -0.00000228       0.00000543       0.00000391
H        5.61231037       1.62013520       7.77136818        0       1.00000000      -0.00000544      -0.00000165      -0.00000067       0.00000242      -0.00000687       0.00000150
19
Lattice="5.612310241546866 0.0 0.0 0.0 4.860403243099165 0.0 0.0 0.0 24.582432123328676" Properties=species:S:1:pos:R:3:tags:I:1:masses:R:1:momenta:R:3:forces:R:3 KEmax=24.559391461069055 iter=189779 volume=670.5618179858607 ns_energy=-12.523476319950708 last_walked_iter_clone=189678 energy=-12.523476320006667 stress="0.024004914479326313 1.9155540270905734e-09 -1.266750387790177e-08 1.9155540270905734e-09 0.02413271359842944 -4.4638022930670436e-08 -1.266750387790177e-08 -4.4638022930670436e-08 0.012739480578438218" pbc="T T F"
H        1.40307756       0.81006721      10.00000000        3       1.00000000       0.00000000       0.00000000       0.00000000       0.00000000       0.00000000       0.00000000
H        4.20923268       0.81006721      10.00000000        3       1.00000000       0.00000000       0.00000000       0.00000000       0.00000000       0.00000000       0.00000000
H        0.00000000       3.24026883      10.00000000        3       1.00000000       0.00000000       0.00000000       0.00000000       0.00000000       0.00000000       0.00000000
H        2.80615512       3.24026883      10.00000000        3       1.00000000       0.00000000       0.00000000       0.00000000       0.00000000       0.00000000       0.00000000
H        0.00000000       1.62013441      12.29121606        2       1.00000000       0.00000000       0.00000000       0.00000000       0.00000000       0.00000000       0.00000000
H        2.80615512       1.62013441      12.29121606        2       1.00000000       0.00000000       0.00000000       0.00000000       0.00000000       0.00000000       0.00000000
H        1.40307756       4.05033604      12.29121606        2       1.00000000       0.00000000       0.00000000       0.00000000       0.00000000       0.00000000       0.00000000
H        4.20923268       4.05033604      12.29121606        2       1.00000000       0.00000000       0.00000000       0.00000000       0.00000000       0.00000000       0.00000000
H        0.00000000       0.00000000      14.58243212        1       1.00000000       0.00000000       0.00000000       0.00000000       0.00000000       0.00000000       0.00000000
H        2.80615512       0.00000000      14.58243212        1       1.00000000       0.00000000       0.00000000       0.00000000       0.00000000       0.00000000       0.00000000
H        1.40307756       2.43020162      14.58243212        1       1.00000000       0.00000000       0.00000000       0.00000000       0.00000000       0.00000000       0.00000000
H        4.20923268       2.43020162      14.58243212        1       1.00000000       0.00000000       0.00000000       0.00000000       0.00000000       0.00000000       0.00000000
H        2.80615612       1.62013294       7.77136859        0       1.00000000      -0.00000010       0.00000119      -0.00000193       0.00000088      -0.00000079       0.00000536
H        4.21227571       4.05032757      16.81107278        0       1.00000000      -0.00000137      -0.00000046      -0.00000127      -0.00000103      -0.00000023      -0.00000300
H        4.20923347       4.05033325       7.77136843        0       1.00000000      -0.00000070      -0.00000215      -0.00000102       0.00000024      -0.00000109       0.00000681
H        1.40003258       4.05032688      16.81107108        0       1.00000000      -0.00000280       0.00000050      -0.00000117       0.00000362      -0.00000130       0.00000041
H        1.40308186       4.05033603       7.77136663        0       1.00000000      -0.00000494       0.00000318      -0.00000184      -0.00000463       0.00000778      -0.00000206
H        2.80615377       1.62012478      16.81106406        0       1.00000000      -0.00000321       0.00000014      -0.00000039      -0.00000228       0.00000543       0.00000391
H        0.00000142       1.62013256       7.77136599        0       1.00000000      -0.00000017       0.00000417       0.00000060       0.00000242      -0.00000687       0.00000150
19
Lattice="5.612310241546866 0.0 0.0 0.0 4.860403243099165 0.0 0.0 0.0 24.582432123328676" Properties=species:S:1:pos:R:3:tags:I:1:masses:R:1:momenta:R:3:forces:R:3 KEmax=24.559391461069055 iter=189779 volume=670.5618179858607 ns_energy=-12.523476319951648 last_walked_iter_clone=189247 energy=-12.523476320006667 stress="0.024004914479326313 1.9155540270905734e-09 -1.266750387790177e-08 1.9155540270905734e-09 0.02413271359842944 -4.4638022930670436e-08 -1.266750387790177e-08 -4.4638022930670436e-08 0.012739480578438218" pbc="T T F"
H        1.40307756       0.81006721      10.00000000        3       1.00000000       0.00000000       0.00000000       0.00000000       0.00000000       0.00000000       0.00000000
H        4.20923268       0.81006721      10.00000000        3       1.00000000       0.00000000       0.00000000       0.00000000       0.00000000       0.00000000       0.00000000
H        0.00000000       3.24026883      10.00000000        3       1.00000000       0.00000000       0.00000000       0.00000000       0.00000000       0.00000000       0.00000000
H        2.80615512       3.24026883      10.00000000        3       1.00000000       0.00000000       0.00000000       0.00000000       0.00000000       0.00000000       0.00000000
H        0.00000000       1.62013441      12.29121606        2       1.00000000       0.00000000       0.00000000       0.00000000       0.00000000       0.00000000       0.00000000
H        2.80615512       1.62013441      12.29121606        2       1.00000000       0.00000000       0.00000000       0.00000000       0.00000000       0.00000000       0.00000000
H        1.40307756       4.05033604      12.29121606        2       1.00000000       0.00000000       0.00000000       0.00000000       0.00000000       0.00000000       0.00000000
H        4.20923268       4.05033604      12.29121606        2       1.00000000       0.00000000       0.00000000       0.00000000       0.00000000       0.00000000       0.00000000