19
Lattice="5.612310241546866 0.0 0.0 0.0 4.860403243099165 0.0 0.0 0.0 24.582432123328676" Properties=species:S:1:pos:R:3:tags:I:1:masses:R:1:momenta:R:3:forces:R:3 KEmax=24.559391461069055 iter=239999 volume=670.5618179858607 ns_energy=-12.523476320047937 last_walked_iter_clone=239829 energy=-12.523474144719215 stress="0.024004684099383618 -3.0992045483424984e-09 8.541852051358806e-09 -3.0992045483424984e-09 0.024132030669600846 -1.5126119800245333e-08 8.541852051358806e-09 -1.5126119800245333e-08 0.012739384253816625" pbc="T T F"
H        1.40307756       0.81006721      10.00000000        3       1.00000000       0.00000000       0.00000000       0.00000000       0.00000000       0.00000000       0.00000000
H        4.20923268       0.81006721      10.00000000        3       1.00000000       0.00000000       0.00000000       0.00000000       0.00000000       0.00000000       0.00000000
H        0.00000000       3.24026883      10.00000000        3       1.00000000       0.00000000       0.00000000       0.00000000       0.00000000       0.00000000       0.00000000
H        2.80615512       3.24026883      10.00000000        3       1.00000000       0.00000000       0.00000000       0.00000000       0.00000000       0.00000000       0.00000000
H        0.00000000       1.62013441      12.29121606        2       1.00000000       0.00000000       0.00000000       0.00000000       0.00000000       0.00000000       0.00000000
H        2.80615512       1.62013441      12.29121606        2       1.00000000       0.00000000       0.00000000       0.00000000       0.00000000       0.00000000       0.00000000
H        1.40307756       4.05033604      12.29121606        2       1.00000000       0.00000000       0.00000000       0.00000000       0.00000000       0.00000000       0.00000000
H        4.20923268       4.05033604      12.29121606        2       1.00000000       0.00000000       0.00000000       0.00000000       0.00000000       0.00000000       0.00000000
H        0.00000000       0.00000000      14.58243212        1       1.00000000       0.00000000       0.00000000       0.00000000       0.00000000       0.00000000       0.00000000
H        2.80615512       0.00000000      14.58243212        1       1.00000000       0.00000000       0.00000000       0.00000000       0.00000000       0.00000000       0.00000000
H        1.40307756       2.43020162      14.58243212        1       1.00000000       0.00000000       0.00000000       0.00000000       0.00000000       0.00000000       0.00000000
H        4.20923268       2.43020162      14.58243212        1       1.00000000       0.00000000       0.00000000       0.00000000       0.00000000       0.00000000       0.00000000
H        2.80615530       1.62013427       7.77136678        0       1.00000000       0.00000014      -0.00000137       0.00000077      -0.00026895      -0.00248676      -0.00000123
H        4.21227475       4.05032619      16.81107132        0       1.00000000      -0.00000135      -0.00000022      -0.00000011       0.00016454      -0.00031463      -0.00000015
H        4.20923235       4.05033609       7.77136717        0       1.00000000       0.00000026      -0.00000048       0.00000054      -0.00047583       0.00246539       0.00000422
H        1.40003394       4.05032599      16.81107086        0       1.00000000      -0.00000128      -0.00000040       0.00000037      -0.00016416      -0.00031433      -0.00000240
H        1.40307760       4.05033545       7.77136639        0       1.00000000      -0.00000035       0.00000079       0.00000020       0.00047813       0.00250611      -0.00000285
H        2.80615538       1.62012662      16.81106471        0       1.00000000      -0.00000063      -0.00000083       0.00000012      -0.00000016       0.00062984       0.00000520
H        0.00000046       1.62013344       7.77136712        0       1.00000000       0.00000023      -0.00000056       0.00000020       0.00026780      -0.00248550       0.00000202
19
Lattice="5.612310241546866 0.0 0.0 0.0 4.860403243099165 0.0 0.0 0.0 24.582432123328676" Properties=species:S:1:pos:R:3:tags:I:1:masses:R:1:momenta:R:3:forces:R:3 KEmax=24.559391461069055 iter=239999 volume=670.5618179858607 ns_energy=-12.52347632004793 last_walked_iter_clone=238291 energy=-12.523474144719215 stress="0.024004684099383618 -3.0992045483424984e-09 8.541852051358806e-09 -3.0992045483424984e-09 0.024132030669600846 -1.5126119800245333e-08 8.541852051358806e-09 -1.5126119800245333e-08 0.012739384253816625" pbc="T T F"
H        1.40307756       0.81006721      10.00000000        3       1.00000000       0.00000000       0.00000000       0.00000000       0.00000000       0.00000000       0.00000000
H        4.20923268       0.81006721      10.00000000        3       1.00000000       0.00000000       0.00000000       0.00000000       0.00000000       0.00000000       0.00000000
H        0.00000000       3.24026883      10.00000000        3       1.00000000       0.00000000       0.00000000       0.00000000       0.00000000       0.00000000       0.00000000
H        2.80615512       3.24026883      10.00000000        3       1.00000000       0.00000000       0.00000000       0.00000000       0.00000000       0.00000000       0.00000000
H        0.00000000       1.62013441      12.29121606        2       1.00000000       0.00000000       0.00000000       0.00000000       0.00000000       0.00000000       0.00000000
H        2.80615512       1.62013441      12.29121606        2       1.00000000       0.00000000       0.00000000       0.00000000       0.00000000       0.00000000       0.00000000
H        1.40307756       4.05033604      12.29121606        2       1.00000000       0.00000000       0.00000000       0.00000000       0.00000000       0.00000000       0.00000000
H        4.20923268       4.05033604      12.29121606        2       1.00000000       0.00000000       0.00000000       0.00000000       0.00000000       0.00000000       0.00000000
H        0.00000000       0.00000000      14.58243212        1       1.00000000       0.00000000       0.00000000       0.00000000       0.00000000       0.00000000       0.00000000
H        2.80615512       0.00000000      14.58243212        1       1.00000000       0.00000000       0.00000000       0.00000000       0.00000000       0.00000000       0.00000000
H        1.40307756       2.43020162      14.58243212        1       1.00000000       0.00000000       0.00000000       0.00000000       0.00000000       0.00000000       0.00000000
H        4.20923268       2.43020162      14.58243212        1       1.00000000       0.00000000       0.00000000       0.00000000       0.00000000       0.00000000       0.00000000
H        2.80615500       1.62013442       7.77136725        0       1.00000000      -0.00000034       0.00000003      -0.00000013      -0.00026895      -0.00248676      -0.00000123
H        4.21227552       4.05032654      16.81107139        0       1.00000000      -0.00000180       0.00000131       0.00000090       0.00016454      -0.00031463      -0.00000015
H        4.20923275       4.05033578       7.77136708        0       1.00000000      -0.00000016      -0.00000086       0.00000044      -0.00047583       0.00246539       0.00000422
H        1.40003474       4.05032567      16.81107094        0       1.00000000      -0.00000066      -0.00000046       0.00000019      -0.00016416      -0.00031433      -0.00000240
H        1.40307716       4.05033567       7.77136675        0       1.00000000       0.00000037      -0.00000016       0.00000089       0.00047813       0.00250611      -0.00000285
H        2.80615507       1.62012625      16.81106449        0       1.00000000       0.00000067      -0.00000153       0.00000034      -0.00000016       0.00062984       0.00000520
H       -0.00000039       1.62013415       7.77136700        0       1.00000000      -0.00000100       0.00000106      -0.00000004       0.00026780      -0.00248550       0.00000202
19
Lattice="5.612310241546866 0.0 0.0 0.0 4.860403243099165 0.0 0.0 0.0 24.582432123328676" Properties=species:S:1:pos:R:3:tags:I:1:masses:R:1:momenta:R:3:forces:R:3 KEmax=24.559391461069055 iter=239999 volume=670.5618179858607 ns_energy=-12.523476320047832 last_walked_iter_clone=239326 energy=-12.523474144719215 stress="0.024004684099383618 -3.0992045483424984e-09 8.541852051358806e-09 -3.0992045483424984e-09 0.024132030669600846 -1.5126119800245333e-08 8.541852051358806e-09 -1.5126119800245333e-08 0.012739384253816625" pbc="T T F"
H        1.40307756       0.81006721      10.00000000        3       1.00000000       0.00000000       0.00000000       0.00000000       0.00000000       0.00000000       0.00000000
H        4.20923268       0.81006721      10.00000000        3       1.00000000       0.00000000       0.00000000       0.00000000       0.00000000       0.00000000       0.00000000
H        0.00000000       3.24026883      10.00000000        3       1.00000000       0.00000000       0.00000000       0.00000000       0.00000000       0.00000000       0.00000000
H        2.80615512       3.24026883      10.00000000        3       1.00000000       0.00000000       0.00000000       0.00000000       0.00000000       0.00000000       0.00000000
H        0.00000000       1.62013441      12.29121606        2       1.00000000       0.00000000       0.00000000       0.00000000       0.00000000       0.00000000       0.00000000
H        2.80615512       1.62013441      12.29121606        2       1.00000000       0.00000000       0.00000000       0.00000000       0.00000000       0.00000000       0.00000000
H        1.40307756       4.05033604      12.29121606        2       1.00000000       0.00000000       0.00000000       0.00000000       0.00000000       0.00000000       0.00000000
H        4.20923268       4.05033604      12.29121606        2       1.00000000       0.00000000       0.00000000       0.00000000       0.00000000       0.00000000       0.00000000
H        0.00000000       0.00000000      14.58243212        1       1.00000000       0.00000000       0.00000000       0.00000000       0.00000000       0.00000000       0.00000000
H        2.80615512       0.00000000      14.58243212        1       1.00000000       0.00000000       0.00000000       0.00000000       0.00000000       0.00000000       0.00000000
H        1.40307756       2.43020162      14.58243212        1       1.00000000       0.00000000       0.00000000       0.00000000       0.00000000       0.00000000       0.00000000
H        4.20923268       2.43020162      14.58243212        1       1.00000000       0.00000000       0.00000000       0.00000000       0.00000000       0.00000000       0.00000000
H        2.80615556       1.62013413       7.77136720        0       1.00000000      -0.00000039      -0.00000074      -0.00000024      -0.00026895      -0.00248676      -0.00000123
H        4.21227504       4.05032641      16.81107113        0       1.00000000      -0.00000054       0.00000112       0.00000094       0.00016454      -0.00031463      -0.00000015
H        4.20923329       4.05033510       7.77136665        0       1.00000000       0.00000042      -0.00000068       0.00000045      -0.00047583       0.00246539       0.00000422
H        1.40003454       4.05032666      16.81107106        0       1.00000000       0.00000012       0.00000131       0.00000020      -0.00016416      -0.00031433      -0.00000240
H        1.40307824       4.05033529       7.77136689        0       1.00000000       0.00000046       0.00000102      -0.00000078       0.00047813       0.00250611      -0.00000285
H        2.80615389       1.62012659      16.81106590        0       1.00000000      -0.00000038      -0.00000062       0.00000098      -0.00000016       0.00062984       0.00000520
H        5.61231044       1.62013373       7.77136704        0       1.00000000      -0.00000012       0.00000049       0.00000022       0.00026780      -0.00248550       0.00000202
19
Lattice="5.612310241546866 0.0 0.0 0.0 4.860403243099165 0.0 0.0 0.0 24.582432123328676" Properties=species:S:1:pos:R:3:tags:I:1:masses:R:1:momenta:R:3:forces:R:3 KEmax=24.559391461069055 iter=239999 volume=670.5618179858607 ns_energy=-12.523476320047797 last_walked_iter_clone=239540 energy=-12.523474144719215 stress="0.024004684099383618 -3.0992045483424984e-09 8.541852051358806e-09 -3.0992045483424984e-09 0.024132030669600846 -1.5126119800245333e-08 8.541852051358806e-09 -1.5126119800245333e-08 0.012739384253816625" pbc="T T F"
H        1.40307756       0.81006721      10.00000000        3       1.00000000       0.00000000       0.00000000       0.00000000       0.00000000       0.00000000       0.00000000
H        4.20923268       0.81006721      10.00000000        3       1.00000000       0.00000000       0.00000000       0.00000000       0.00000000       0.00000000       0.00000000
H        0.00000000       3.24026883      10.00000000        3       1.00000000       0.00000000       0.00000000       0.00000000       0.00000000       0.00000000       0.00000000
H        2.80615512       3.24026883      10.00000000        3       1.00000000       0.00000000       0.00000000       0.00000000       0.00000000       0.00000000       0.00000000
H        0.00000000       1.62013441      12.29121606        2       1.00000000       0.00000000       0.00000000       0.00000000       0.00000000       0.00000000       0.00000000
H        2.80615512       1.62013441      12.29121606        2       1.00000000       0.00000000       0.00000000       0.00000000       0.00000000       0.00000000       0.00000000
H        1.40307756       4.05033604      12.29121606        2       1.00000000       0.00000000       0.00000000       0.00000000       0.00000000       0.00000000       0.00000000
H        4.20923268       4.05033604      12.29121606        2       1.00000000       0.00000000       0.00000000       0.00000000       0.00000000       0.00000000       0.00000000
H        0.00000000       0.00000000      14.58243212        1       1.00000000       0.00000000       0.00000000       0.00000000       0.00000000       0.00000000       0.00000000
H        2.80615512       0.00000000      14.58243212        1       1.00000000       0.00000000       0.00000000       0.00000000       0.00000000       0.00000000       0.00000000
H        1.40307756       2.43020162      14.58243212        1       1.00000000       0.00000000       0.00000000       0.00000000       0.00000000       0.00000000       0.00000000
H        4.20923268       2.43020162      14.58243212        1       1.00000000       0.00000000       0.00000000       0.00000000       0.00000000       0.00000000       0.00000000
H        2.80615507       1.62013443       7.77136742        0       1.00000000      -0.00000026       0.00000097       0.00000088      -0.00026895      -0.00248676      -0.00000123
H        4.21227570       4.05032581      16.81107137        0       1.00000000      -0.00000003       0.00000015       0.00000077       0.00016454      -0.00031463      -0.00000015
H        4.20923259       4.05033617       7.77136784        0       1.00000000      -0.00000037      -0.00000073       0.00000070      -0.00047583       0.00246539       0.00000422
H        1.40003402       4.05032543      16.81107099        0       1.00000000      -0.00000042       0.00000034       0.00000007      -0.00016416      -0.00031433      -0.00000240
H        1.40307772       4.05033663       7.77136662        0       1.00000000      -0.00000057      -0.00000048      -0.00000135       0.00047813       0.00250611      -0.00000285
H        2.80615478       1.62012581      16.81106472        0       1.00000000       0.00000152      -0.00000049       0.00000077      -0.00000016       0.00062984       0.00000520
H        5.61231058       1.62013509       7.77136703        0       1.00000000      -0.00000091       0.00000038      -0.00000045       0.00026780      -0.00248550       0.00000202
19
Lattice="5.612310241546866 0.0 0.0 0.0 4.860403243099165 0.0 0.0 0.0 24.582432123328676" Properties=species:S:1:pos:R:3:tags:I:1:masses:R:1:momenta:R:3:forces:R:3 KEmax=24.559391461069055 iter=239999 volume=670.5618179858607 ns_energy=-12.52347632004756 last_walked_iter_clone=236599 energy=-12.523474144719215 stress="0.024004684099383618 -3.0992045483424984e-09 8.541852051358806e-09 -3.0992045483424984e-09 0.024132030669600846 -1.5126119800245333e-08 8.541852051358806e-09 -1.5126119800245333e-08 0.012739384253816625" pbc="T T F"
H        1.40307756       0.81006721      10.00000000        3       1.00000000       0.00000000       0.00000000       0.00000000       0.00000000       0.00000000       0.00000000
H        4.20923268       0.81006721      10.00000000        3       1.00000000       0.00000000       0.00000000       0.00000000       0.00000000       0.00000000       0.00000000
H        0.00000000       3.24026883      10.00000000        3       1.00000000       0.00000000       0.00000000       0.00000000       0.00000000       0.00000000       0.00000000
H        2.80615512       3.24026883      10.00000000        3       1.00000000       0.00000000       0.00000000       0.00000000       0.00000000       0.00000000       0.00000000
H        0.00000000       1.62013441      12.29121606        2       1.00000000       0.00000000       0.00000000       0.00000000       0.00000000       0.00000000       0.00000000
H        2.80615512       1.62013441      12.29121606        2       1.00000000       0.00000000       0.00000000       0.00000000       0.00000000       0.00000000       0.00000000
H        1.40307756       4.05033604      12.29121606        2       1.00000000       0.00000000       0.00000000       0.00000000       0.00000000       0.00000000       0.00000000
H        4.20923268       4.05033604      12.29121606        2       1.00000000       0.00000000       0.00000000       0.00000000       0.00000000       0.00000000       0.00000000
H        0.00000000       0.00000000      14.58243212        1       1.00000000       0.00000000       0.00000000       0.00000000       0.00000000       0.00000000       0.00000000
H        2.80615512       0.00000000      14.58243212        1       1.00000000       0.00000000       0.00000000       0.00000000       0.00000000       0.00000000       0.00000000
H        1.40307756       2.43020162      14.58243212        1       1.00000000       0.00000000       0.00000000       0.00000000       0.00000000       0.00000000       0.00000000
H        4.20923268       2.43020162      14.58243212        1       1.00000000       0.00000000       0.00000000       0.00000000       0.00000000       0.00000000       0.00000000
H        2.80615447       1.62013460       7.77136723        0       1.00000000      -0.00000086      -0.00000008      -0.00000035      -0.00026895      -0.00248676      -0.00000123
H        4.21227518       4.05032623      16.81107059        0       1.00000000       0.00000036       0.00000008       0.00000077       0.00016454      -0.00031463      -0.00000015
H        4.20923242       4.05033587       7.77136682        0       1.00000000       0.00000096       0.00000074      -0.00000048      -0.00047583       0.00246539       0.00000422
H        1.40003415       4.05032559      16.81107123        0       1.00000000       0.00000095       0.00000011       0.00000050      -0.00016416      -0.00031433      -0.00000240
H        1.40307706       4.05033549       7.77136752        0       1.00000000       0.00000016       0.00000116       0.00000039       0.00047813       0.00250611      -0.00000285
H        2.80615465       1.62012549      16.81106465        0       1.00000000       0.00000109       0.00000088      -0.00000033      -0.00000016       0.00062984       0.00000520
H       -0.00000034       1.62013384       7.77136655        0       1.00000000      -0.00000167      -0.00000070      -0.00000014       0.00026780      -0.00248550       0.00000202
19
Lattice="5.612310241546866 0.0 0.0 0.0 4.860403243099165 0.0 0.0 0.0 24.582432123328676" Properties=species:S:1:pos:R:3:tags:I:1:masses:R:1:momenta:R:3:forces:R:3 KEmax=24.559391461069055 iter=239999 volume=670.5618179858607 ns_energy=-12.523476320047658 last_walked_iter_clone=239771 energy=-12.523474144719215 stress="0.024004684099383618 -3.0992045483424984e-09 8.541852051358806e-09 -3.0992045483424984e-09 0.024132030669600846 -1.5126119800245333e-08 8.541852051358806e-09 -1.5126119800245333e-08 0.012739384253816625" pbc="T T F"
H        1.40307756       0.81006721      10.00000000        3       1.00000000       0.00000000       0.00000000       0.00000000       0.00000000       0.00000000       0.00000000
H        4.20923268       0.81006721      10.00000000        3       1.00000000       0.00000000       0.00000000       0.00000000       0.00000000       0.00000000       0.00000000
H        0.00000000       3.24026883      10.00000000        3       1.00000000       0.00000000       0.00000000       0.00000000       0.00000000       0.00000000       0.00000000
H        2.80615512       3.24026883      10.00000000        3       1.00000000       0.00000000       0.00000000       0.00000000       0.00000000       0.00000000       0.00000000
H        0.00000000       1.62013441      12.29121606        2       1.00000000       0.00000000       0.00000000       0.00000000       0.00000000       0.00000000       0.00000000
H        2.80615512       1.62013441      12.29121606        2       1.00000000       0.00000000       0.00000000       0.00000000       0.00000000       0.00000000       0.00000000
H        1.40307756       4.05033604      12.29121606        2       1.00000000       0.00000000       0.00000000       0.00000000       0.00000000       0.00000000       0.00000000
H        4.20923268       4.05033604      12.29121606        2       1.00000000       0.00000000       0.00000000       0.00000000       0.00000000       0.00000000       0.00000000
H        0.00000000       0.00000000      14.58243212        1       1.00000000       0.00000000       0.00000000       0.00000000       0.00000000       0.00000000       0.00000000
H        2.80615512       0.00000000      14.58243212        1       1.00000000       0.00000000       0.00000000       0.00000000       0.00000000       0.00000000       0.00000000
H        1.40307756       2.43020162      14.58243212        1       1.00000000       0.00000000       0.00000000       0.00000000       0.00000000       0.00000000       0.00000000
H        4.20923268       2.43020162      14.58243212        1       1.00000000       0.00000000       0.00000000       0.00000000       0.00000000       0.00000000       0.00000000
H        2.80615551       1.62013326       7.77136731        0       1.00000000       0.00000007      -0.00000019      -0.00000024      -0.00026895      -0.00248676      -0.00000123
H        4.21227473       4.05032676      16.81107101        0       1.00000000      -0.00000047       0.00000058       0.00000015       0.00016454      -0.00031463      -0.00000015
H        4.20923355       4.05033592       7.77136635        0       1.00000000       0.00000080       0.00000098       0.00000115      -0.00047583       0.00246539       0.00000422
H        1.40003410       4.05032663      16.81107114        0       1.00000000       0.00000018       0.00000001      -0.00000046      -0.00016416      -0.00031433      -0.00000240
H        1.40307832       4.05033508       7.77136709        0       1.00000000       0.00000017      -0.00000036      -0.00000073       0.00047813       0.00250611      -0.00000285
H        2.80615481       1.62012694      16.81106567        0       1.00000000       0.00000089      -0.00000032       0.00000155      -0.00000016       0.00062984       0.00000520
H        5.61231069       1.62013355       7.77136687        0       1.00000000      -0.00000007      -0.00000012       0.00000061       0.00026780      -0.00248550       0.00000202
19
Lattice="5.612310241546866 0.0 0.0 0.0 4.860403243099165 0.0 0.0 0.0 24.582432123328676" Properties=species:S:1:pos:R:3:tags:I:1:masses:R:1:momenta:R:3:forces:R:3 KEmax=24.559391461069055 iter=239999 volume=670.5618179858607 ns_energy=-12.523476320047774 last_walked_iter_clone=239244 energy=-12.523474144719215 stress="0.024004684099383618 -3.0992045483424984e-09 8.541852051358806e-09 -3.0992045483424984e-09 0.024132030669600846 -1.5126119800245333e-08 8.541852051358806e-09 -1.5126119800245333e-08 0.012739384253816625" pbc="T T F"
H        1.40307756       0.81006721      10.00000000        3       1.00000000       0.00000000       0.00000000       0.00000000       0.00000000       0.00000000       0.00000000
H        4.20923268       0.81006721      10.00000000        3       1.00000000       0.00000000       0.00000000       0.00000000       0.00000000       0.00000000       0.00000000
H        0.00000000       3.24026883      10.00000000        3       1.00000000       0.00000000       0.00000000       0.00000000       0.00000000       0.00000000       0.00000000
H        2.80615512       3.24026883      10.00000000        3       1.00000000       0.00000000       0.00000000       0.00000000       0.00000000       0.00000000       0.00000000
H        0.00000000       1.62013441      12.29121606        2       1.00000000       0.00000000       0.00000000       0.00000000       0.00000000       0.00000000       0.00000000
H        2.80615512       1.62013441      12.29121606        2       1.00000000       0.00000000       0.00000000       0.00000000       0.00000000       0.00000000       0.00000000
H        1.40307756       4.05033604      12.29121606        2       1.00000000       0.00000000       0.00000000       0.00000000       0.00000000       0.00000000       0.00000000
H        4.20923268       4.05033604      12.29121606        2       1.00000000       0.00000000       0.00000000       0.00000000       0.00000000       0.00000000       0.00000000
H        0.00000000       0.00000000      14.58243212        1       1.00000000       0.00000000       0.00000000       0.00000000       0.00000000       0.00000000       0.00000000
H        2.80615512       0.00000000      14.58243212        1       1.00000000       0.00000000       0.00000000       0.00000000       0.00000000       0.00000000       0.00000000
H        1.40307756       2.43020162      14.58243212        1       1.00000000       0.00000000       0.00000000       0.00000000       0.00000000       0.00000000       0.00000000
H        4.20923268       2.43020162      14.58243212        1       1.00000000       0.00000000       0.00000000       0.00000000       0.00000000       0.00000000       0.00000000
H        2.80615486       1.62013447       7.77136628        0       1.00000000      -0.00000162       0.00000136       0.00000114      -0.00026895      -0.00248676      -0.00000123
H        4.21227618       4.05032636      16.81107074        0       1.00000000      -0.00000009      -0.00000032      -0.00000019       0.00016454      -0.00031463      -0.00000015
H        4.20923239       4.05033583       7.77136694        0       1.00000000      -0.00000073      -0.00000052      -0.00000064      -0.00047583       0.00246539       0.00000422
H        1.40003523       4.05032592      16.81107140        0       1.00000000      -0.00000036       0.00000006      -0.00000077      -0.00016416      -0.00031433      -0.00000240
H        1.40307756       4.05033598       7.77136709        0       1.00000000       0.00000055       0.00000101       0.00000045       0.00047813       0.00250611      -0.00000285
H        2.80615505       1.62012620      16.81106497        0       1.00000000      -0.00000074       0.00000044      -0.00000048      -0.00000016       0.00062984       0.00000520
H        0.00000019       1.62013422       7.77136708        0       1.00000000       0.00000074      -0.00000133      -0.00000066       0.00026780      -0.00248550       0.00000202
19
Lattice="5.612310241546866 0.0 0.0 0.0 4.860403243099165 0.0 0.0 0.0 24.582432123328676" Properties=species:S:1:pos:R:3:tags:I:1:masses:R:1:momenta:R:3:forces:R:3 KEmax=24.559391461069055 iter=239999 volume=670.5618179858607 ns_energy=-12.523476320047559 last_walked_iter_clone=237531 energy=-12.523474144719215 stress="0.024004684099383618 -3.0992045483424984e-09 8.541852051358806e-09 -3.0992045483424984e-09 0.024132030669600846 -1.5126119800245333e-08 8.541852051358806e-09 -1.5126119800245333e-08 0.012739384253816625" pbc="T T F"
H        1.40307756       0.81006721      10.00000000        3       1.00000000       0.00000000       0.00000000       0.00000000       0.00000000       0.00000000       0.00000000
H        4.20923268       0.81006721      10.00000000        3       1.00000000       0.00000000       0.00000000       0.00000000       0.00000000       0.00000000       0.00000000
H        0.00000000       3.24026883      10.00000000        3       1.00000000       0.00000000       0.00000000       0.00000000       0.00000000       0.00000000       0.00000000
H        2.80615512       3.24026883      10.00000000        3       1.00000000       0.00000000       0.00000000       0.00000000       0.00000000       0.00000000       0.00000000
H        0.00000000       1.62013441      12.29121606        2       1.00000000       0.00000000       0.00000000       0.00000000       0.00000000       0.00000000       0.00000000
H        2.80615512       1.62013441      12.29121606        2       1.00000000       0.00000000       0.00000000       0.00000000       0.00000000       0.00000000       0.00000000
H        1.40307756       4.05033604      12.29121606        2       1.00000000       0.00000000       0.00000000       0.00000000       0.00000000       0.00000000       0.00000000
H        4.20923268       4.05033604      12.29121606        2       1.00000000       0.00000000       0.00000000       0.00000000       0.00000000       0.00000000       0.00000000