20
Lattice="5.612310241546866 0.0 0.0 0.0 4.860403243099165 0.0 0.0 0.0 24.582432123328676" Properties=species:S:1:pos:R:3:tags:I:1:masses:R:1:momenta:R:3:forces:R:3 KEmax=25.851991011651638 iter=106884 volume=670.5618179858607 ns_energy=-13.634541830439892 last_walked_iter_clone=106713 energy=-13.634541830453477 stress="0.009309744758465474 -2.835909905900088e-09 8.66503329079966e-09 -2.835909905900088e-09 0.009309734725033407 -1.0005660720080206e-08 8.66503329079966e-09 -1.0005660720080206e-08 0.004280591324313388" pbc="T T T"
H        1.40307756       0.81006721      10.00000000        3       1.00000000       0.00000000       0.00000000       0.00000000       0.00000000       0.00000000       0.00000000
H        4.20923268       0.81006721      10.00000000        3       1.00000000       0.00000000       0.00000000       0.00000000       0.00000000       0.00000000       0.00000000
H        0.00000000       3.24026883      10.00000000        3       1.00000000       0.00000000       0.00000000       0.00000000       0.00000000       0.00000000       0.00000000
H        2.80615512       3.24026883      10.00000000        3       1.00000000       0.00000000       0.00000000       0.00000000       0.00000000       0.00000000       0.00000000
H        0.00000000       1.62013441      12.29121606        2       1.00000000       0.00000000       0.00000000       0.00000000       0.00000000       0.00000000       0.00000000
H        2.80615512       1.62013441      12.29121606        2       1.00000000       0.00000000       0.00000000       0.00000000       0.00000000       0.00000000       0.00000000
H        1.40307756       4.05033604      12.29121606        2       1.00000000       0.00000000       0.00000000       0.00000000       0.00000000       0.00000000       0.00000000
H        4.20923268       4.05033604      12.29121606        2       1.00000000       0.00000000       0.00000000       0.00000000       0.00000000       0.00000000       0.00000000
H        0.00000000       0.00000000      14.58243212        1       1.00000000       0.00000000       0.00000000       0.00000000       0.00000000       0.00000000       0.00000000
H        2.80615512       0.00000000      14.58243212        1       1.00000000       0.00000000       0.00000000       0.00000000       0.00000000       0.00000000       0.00000000
H        1.40307756       2.43020162      14.58243212        1       1.00000000       0.00000000       0.00000000       0.00000000       0.00000000       0.00000000       0.00000000
H        4.20923268       2.43020162      14.58243212        1       1.00000000       0.00000000       0.00000000       0.00000000       0.00000000       0.00000000       0.00000000
H        2.80615455       3.24026879       5.56548657        0       1.00000000      -0.00000054       0.00000128      -0.00000088       0.00000195      -0.00000022       0.00000089
H        5.61231006       3.24026702       5.56548592        0       1.00000000       0.00000017      -0.00000083      -0.00000061      -0.00000106      -0.00000265       0.00000304
H        1.40307703       0.81006592       5.56548516        0       1.00000000       0.00000077       0.00000235      -0.00000045       0.00000305      -0.00000210      -0.00000009
H        5.61231006      -0.00000149       7.79181702        0       1.00000000       0.00000169       0.00000028      -0.00000112      -0.00000206      -0.00000241       0.00000200
H        4.20923289       0.81006646       5.56548673        0       1.00000000       0.00000049      -0.00000023      -0.00000074      -0.00000178       0.00000195      -0.00000038
H        1.40307785       2.43020124       7.79181775        0       1.00000000      -0.00000019      -0.00000189       0.00000107      -0.00000655       0.00000186      -0.00000348
H        4.20923270       2.43019979       7.79181726        0       1.00000000       0.00000166      -0.00000170       0.00000074       0.00000488       0.00000529      -0.00000038
H        2.80615457      -0.00000126       7.79181757        0       1.00000000      -0.00000104      -0.00000041      -0.00000264       0.00000203      -0.00000172      -0.00000165
20
Lattice="5.612310241546866 0.0 0.0 0.0 4.860403243099165 0.0 0.0 0.0 24.582432123328676" Properties=species:S:1:pos:R:3:tags:I:1:masses:R:1:momenta:R:3:forces:R:3 KEmax=25.851991011651638 iter=106884 volume=670.5618179858607 ns_energy=-13.634541830440082 last_walked_iter_clone=106821 energy=-13.634541830453477 stress="0.009309744758465474 -2.835909905900088e-09 8.66503329079966e-09 -2.835909905900088e-09 0.009309734725033407 -1.0005660720080206e-08 8.66503329079966e-09 -1.0005660720080206e-08 0.004280591324313388" pbc="T T T"
H        1.40307756       0.81006721      10.00000000        3       1.00000000       0.00000000       0.00000000       0.00000000       0.00000000       0.00000000       0.00000000
H        4.20923268       0.81006721      10.00000000        3       1.00000000       0.00000000       0.00000000       0.00000000       0.00000000       0.00000000       0.00000000
H        0.00000000       3.24026883      10.00000000        3       1.00000000       0.00000000       0.00000000       0.00000000       0.00000000       0.00000000       0.00000000
H        2.80615512       3.24026883      10.00000000        3       1.00000000       0.00000000       0.00000000       0.00000000       0.00000000       0.00000000       0.00000000
H        0.00000000       1.62013441      12.29121606        2       1.00000000       0.00000000       0.00000000       0.00000000       0.00000000       0.00000000       0.00000000
H        2.80615512       1.62013441      12.29121606        2       1.00000000       0.00000000       0.00000000       0.00000000       0.00000000       0.00000000       0.00000000
H        1.40307756       4.05033604      12.29121606        2       1.00000000       0.00000000       0.00000000       0.00000000       0.00000000       0.00000000       0.00000000
H        4.20923268       4.05033604      12.29121606        2       1.00000000       0.00000000       0.00000000       0.00000000       0.00000000       0.00000000       0.00000000
H        0.00000000       0.00000000      14.58243212        1       1.00000000       0.00000000       0.00000000       0.00000000       0.00000000       0.00000000       0.00000000
H        2.80615512       0.00000000      14.58243212        1       1.00000000       0.00000000       0.00000000       0.00000000       0.00000000       0.00000000       0.00000000
H        1.40307756       2.43020162      14.58243212        1       1.00000000       0.00000000       0.00000000       0.00000000       0.00000000       0.00000000       0.00000000
H        4.20923268       2.43020162      14.58243212        1       1.00000000       0.00000000       0.00000000       0.00000000       0.00000000       0.00000000       0.00000000
H        2.80615698       3.24027038       5.56548561        0       1.00000000      -0.00000100      -0.00000069       0.00000007       0.00000195      -0.00000022       0.00000089
H        0.00000119       3.24026920       5.56548518        0       1.00000000       0.00000067       0.00000135      -0.00000056      -0.00000106      -0.00000265       0.00000304
H        1.40307920       0.81006777       5.56548482        0       1.00000000       0.00000104       0.00000114      -0.00000179       0.00000305      -0.00000210      -0.00000009
H       -0.00000003       4.86040443       7.79181703        0       1.00000000      -0.00000106       0.00000002       0.00000034      -0.00000206      -0.00000241       0.00000200
H        4.20923252       0.81006803       5.56548499        0       1.00000000      -0.00000191      -0.00000054      -0.00000052      -0.00000178       0.00000195      -0.00000038
H        1.40307691       2.43020207       7.79181729        0       1.00000000      -0.00000119      -0.00000008      -0.00000039      -0.00000655       0.00000186      -0.00000348
H        4.20923276       2.43020108       7.79181879        0       1.00000000       0.00000198      -0.00000032       0.00000022       0.00000488       0.00000529      -0.00000038
H        2.80615518       0.00000028       7.79181747        0       1.00000000      -0.00000146      -0.00000008      -0.00000002       0.00000203      -0.00000172      -0.00000165
20
Lattice="5.612310241546866 0.0 0.0 0.0 4.860403243099165 0.0 0.0 0.0 24.582432123328676" Properties=species:S:1:pos:R:3:tags:I:1:masses:R:1:momenta:R:3:forces:R:3 KEmax=25.851991011651638 iter=106884 volume=670.5618179858607 ns_energy=-13.634541830439241 last_walked_iter_clone=106412 energy=-13.634541830453477 stress="0.009309744758465474 -2.835909905900088e-09 8.66503329079966e-09 -2.835909905900088e-09 0.009309734725033407 -1.0005660720080206e-08 8.66503329079966e-09 -1.0005660720080206e-08 0.004280591324313388" pbc="T T T"
H        1.40307756       0.81006721      10.00000000        3       1.00000000       0.00000000       0.00000000       0.00000000       0.00000000       0.00000000       0.00000000
H        4.20923268       0.81006721      10.00000000        3       1.00000000       0.00000000       0.00000000       0.00000000       0.00000000       0.00000000       0.00000000
H        0.00000000       3.24026883      10.00000000        3       1.00000000       0.00000000       0.00000000       0.00000000       0.00000000       0.00000000       0.00000000
H        2.80615512       3.24026883      10.00000000        3       1.00000000       0.00000000       0.00000000       0.00000000       0.00000000       0.00000000       0.00000000
H        0.00000000       1.62013441      12.29121606        2       1.00000000       0.00000000       0.00000000       0.00000000       0.00000000       0.00000000       0.00000000
H        2.80615512       1.62013441      12.29121606        2       1.00000000       0.00000000       0.00000000       0.00000000       0.00000000       0.00000000       0.00000000
H        1.40307756       4.05033604      12.29121606        2       1.00000000       0.00000000       0.00000000       0.00000000       0.00000000       0.00000000       0.00000000
H        4.20923268       4.05033604      12.29121606        2       1.00000000       0.00000000       0.00000000       0.00000000       0.00000000       0.00000000       0.00000000
H        0.00000000       0.00000000      14.58243212        1       1.00000000       0.00000000       0.00000000       0.00000000       0.00000000       0.00000000       0.00000000
H        2.80615512       0.00000000      14.58243212        1       1.00000000       0.00000000       0.00000000       0.00000000       0.00000000       0.00000000       0.00000000
H        1.40307756       2.43020162      14.58243212        1       1.00000000       0.00000000       0.00000000       0.00000000       0.00000000       0.00000000       0.00000000
H        4.20923268       2.43020162      14.58243212        1       1.00000000       0.00000000       0.00000000       0.00000000       0.00000000       0.00000000       0.00000000
H        2.80615421       3.24027088       5.56548718        0       1.00000000      -0.00000043       0.00000220       0.00000162       0.00000195      -0.00000022       0.00000089
H        5.61231075       3.24027031       5.56548717        0       1.00000000       0.00000021       0.00000033      -0.00000064      -0.00000106      -0.00000265       0.00000304
H        1.40307648       0.81006831       5.56548573        0       1.00000000       0.00000093       0.00000152      -0.00000104       0.00000305      -0.00000210      -0.00000009
H        5.61230996       0.00000131       7.79181733        0       1.00000000       0.00000061       0.00000107      -0.00000102      -0.00000206      -0.00000241       0.00000200
H        4.20923144       0.81006816       5.56548656        0       1.00000000       0.00000123      -0.00000002      -0.00000113      -0.00000178       0.00000195      -0.00000038
H        1.40307675       2.43020294       7.79181852        0       1.00000000      -0.00000003      -0.00000163       0.00000127      -0.00000655       0.00000186      -0.00000348
H        4.20923108       2.43020280       7.79181824        0       1.00000000      -0.00000015      -0.00000043      -0.00000117       0.00000488       0.00000529      -0.00000038
H        2.80615474       4.86040473       7.79181854        0       1.00000000      -0.00000246       0.00000177      -0.00000010       0.00000203      -0.00000172      -0.00000165
20
Lattice="5.612310241546866 0.0 0.0 0.0 4.860403243099165 0.0 0.0 0.0 24.582432123328676" Properties=species:S:1:pos:R:3:tags:I:1:masses:R:1:momenta:R:3:forces:R:3 KEmax=25.851991011651638 iter=106884 volume=670.5618179858607 ns_energy=-13.634541830439113 last_walked_iter_clone=106524 energy=-13.634541830453477 stress="0.009309744758465474 -2.835909905900088e-09 8.66503329079966e-09 -2.835909905900088e-09 0.009309734725033407 -1.0005660720080206e-08 8.66503329079966e-09 -1.0005660720080206e-08 0.004280591324313388" pbc="T T T"
H        1.40307756       0.81006721      10.00000000        3       1.00000000       0.00000000       0.00000000       0.00000000       0.00000000       0.00000000       0.00000000
H        4.20923268       0.81006721      10.00000000        3       1.00000000       0.00000000       0.00000000       0.00000000       0.00000000       0.00000000       0.00000000
H        0.00000000       3.24026883      10.00000000        3       1.00000000       0.00000000       0.00000000       0.00000000       0.00000000       0.00000000       0.00000000
H        2.80615512       3.24026883      10.00000000        3       1.00000000       0.00000000       0.00000000       0.00000000       0.00000000       0.00000000       0.00000000
H        0.00000000       1.62013441      12.29121606        2       1.00000000       0.00000000       0.00000000       0.00000000       0.00000000       0.00000000       0.00000000
H        2.80615512       1.62013441      12.29121606        2       1.00000000       0.00000000       0.00000000       0.00000000       0.00000000       0.00000000       0.00000000
H        1.40307756       4.05033604      12.29121606        2       1.00000000       0.00000000       0.00000000       0.00000000       0.00000000       0.00000000       0.00000000
H        4.20923268       4.05033604      12.29121606        2       1.00000000       0.00000000       0.00000000       0.00000000       0.00000000       0.00000000       0.00000000
H        0.00000000       0.00000000      14.58243212        1       1.00000000       0.00000000       0.00000000       0.00000000       0.00000000       0.00000000       0.00000000
H        2.80615512       0.00000000      14.58243212        1       1.00000000       0.00000000       0.00000000       0.00000000       0.00000000       0.00000000       0.00000000
H        1.40307756       2.43020162      14.58243212        1       1.00000000       0.00000000       0.00000000       0.00000000       0.00000000       0.00000000       0.00000000
H        4.20923268       2.43020162      14.58243212        1       1.00000000       0.00000000       0.00000000       0.00000000       0.00000000       0.00000000       0.00000000
H        2.80615542       3.24026943       5.56548570        0       1.00000000      -0.00000278       0.00000079       0.00000108       0.00000195      -0.00000022       0.00000089
H        0.00000028       3.24027010       5.56548517        0       1.00000000       0.00000108      -0.00000056       0.00000025      -0.00000106      -0.00000265       0.00000304
H        1.40307791       0.81006803       5.56548632        0       1.00000000      -0.00000020       0.00000099      -0.00000106       0.00000305      -0.00000210      -0.00000009
H       -0.00000119       4.86040414       7.79181827        0       1.00000000       0.00000073       0.00000155       0.00000105      -0.00000206      -0.00000241       0.00000200
H        4.20923273       0.81006720       5.56548674        0       1.00000000       0.00000031       0.00000181      -0.00000056      -0.00000178       0.00000195      -0.00000038
H        1.40307635       2.43020331       7.79181755        0       1.00000000      -0.00000245      -0.00000039       0.00000131      -0.00000655       0.00000186      -0.00000348
H        4.20923208       2.43020261       7.79181641        0       1.00000000       0.00000113       0.00000187       0.00000050       0.00000488       0.00000529      -0.00000038
H        2.80615408       4.86040468       7.79181821        0       1.00000000      -0.00000018       0.00000134       0.00000058       0.00000203      -0.00000172      -0.00000165
20
Lattice="5.612310241546866 0.0 0.0 0.0 4.860403243099165 0.0 0.0 0.0 24.582432123328676" Properties=species:S:1:pos:R:3:tags:I:1:masses:R:1:momenta:R:3:forces:R:3 KEmax=25.851991011651638 iter=106884 volume=670.5618179858607 ns_energy=-13.634541830439158 last_walked_iter_clone=106882 energy=-13.634541830453477 stress="0.009309744758465474 -2.835909905900088e-09 8.66503329079966e-09 -2.835909905900088e-09 0.009309734725033407 -1.0005660720080206e-08 8.66503329079966e-09 -1.0005660720080206e-08 0.004280591324313388" pbc="T T T"
H        1.40307756       0.81006721      10.00000000        3       1.00000000       0.00000000       0.00000000       0.00000000       0.00000000       0.00000000       0.00000000
H        4.20923268       0.81006721      10.00000000        3       1.00000000       0.00000000       0.00000000       0.00000000       0.00000000       0.00000000       0.00000000
H        0.00000000       3.24026883      10.00000000        3       1.00000000       0.00000000       0.00000000       0.00000000       0.00000000       0.00000000       0.00000000
H        2.80615512       3.24026883      10.00000000        3       1.00000000       0.00000000       0.00000000       0.00000000       0.00000000       0.00000000       0.00000000
H        0.00000000       1.62013441      12.29121606        2       1.00000000       0.00000000       0.00000000       0.00000000       0.00000000       0.00000000       0.00000000
H        2.80615512       1.62013441      12.29121606        2       1.00000000       0.00000000       0.00000000       0.00000000       0.00000000       0.00000000       0.00000000
H        1.40307756       4.05033604      12.29121606        2       1.00000000       0.00000000       0.00000000       0.00000000       0.00000000       0.00000000       0.00000000
H        4.20923268       4.05033604      12.29121606        2       1.00000000       0.00000000       0.00000000       0.00000000       0.00000000       0.00000000       0.00000000
H        0.00000000       0.00000000      14.58243212        1       1.00000000       0.00000000       0.00000000       0.00000000       0.00000000       0.00000000       0.00000000
H        2.80615512       0.00000000      14.58243212        1       1.00000000       0.00000000       0.00000000       0.00000000       0.00000000       0.00000000       0.00000000
H        1.40307756       2.43020162      14.58243212        1       1.00000000       0.00000000       0.00000000       0.00000000       0.00000000       0.00000000       0.00000000
H        4.20923268       2.43020162      14.58243212        1       1.00000000       0.00000000       0.00000000       0.00000000       0.00000000       0.00000000       0.00000000
H        2.80615686       3.24026982       5.56548474        0       1.00000000      -0.00000105       0.00000042      -0.00000196       0.00000195      -0.00000022       0.00000089
H        0.00000160       3.24026971       5.56548558        0       1.00000000      -0.00000238      -0.00000075      -0.00000045      -0.00000106      -0.00000265       0.00000304
H        1.40307889       0.81006826       5.56548657        0       1.00000000       0.00000002       0.00000143      -0.00000172       0.00000305      -0.00000210      -0.00000009
H        0.00000078      -0.00000001       7.79181771        0       1.00000000      -0.00000152      -0.00000233      -0.00000047      -0.00000206      -0.00000241       0.00000200
H        4.20923373       0.81006832       5.56548607        0       1.00000000       0.00000051      -0.00000093      -0.00000006      -0.00000178       0.00000195      -0.00000038
H        1.40307729       2.43020323       7.79181806        0       1.00000000      -0.00000150      -0.00000074      -0.00000051      -0.00000655       0.00000186      -0.00000348
H        4.20923271       2.43020281       7.79181710        0       1.00000000       0.00000069       0.00000009      -0.00000130       0.00000488       0.00000529      -0.00000038
H        2.80615469       0.00000007       7.79181779        0       1.00000000       0.00000033      -0.00000022       0.00000194       0.00000203      -0.00000172      -0.00000165
20
Lattice="5.612310241546866 0.0 0.0 0.0 4.860403243099165 0.0 0.0 0.0 24.582432123328676" Properties=species:S:1:pos:R:3:tags:I:1:masses:R:1:momenta:R:3:forces:R:3 KEmax=25.851991011651638 iter=106884 volume=670.5618179858607 ns_energy=-13.634541830439732 last_walked_iter_clone=106853 energy=-13.634541830453477 stress="0.009309744758465474 -2.835909905900088e-09 8.66503329079966e-09 -2.835909905900088e-09 0.009309734725033407 -1.0005660720080206e-08 8.66503329079966e-09 -1.0005660720080206e-08 0.004280591324313388" pbc="T T T"
H        1.40307756       0.81006721      10.00000000        3       1.00000000       0.00000000       0.00000000       0.00000000       0.00000000       0.00000000       0.00000000
H        4.20923268       0.81006721      10.00000000        3       1.00000000       0.00000000       0.00000000       0.00000000       0.00000000       0.00000000       0.00000000
H        0.00000000       3.24026883      10.00000000        3       1.00000000       0.00000000       0.00000000       0.00000000       0.00000000       0.00000000       0.00000000
H        2.80615512       3.24026883      10.00000000        3       1.00000000       0.00000000       0.00000000       0.00000000       0.00000000       0.00000000       0.00000000
H        0.00000000       1.62013441      12.29121606        2       1.00000000       0.00000000       0.00000000       0.00000000       0.00000000       0.00000000       0.00000000
H        2.80615512       1.62013441      12.29121606        2       1.00000000       0.00000000       0.00000000       0.00000000       0.00000000       0.00000000       0.00000000
H        1.40307756       4.05033604      12.29121606        2       1.00000000       0.00000000       0.00000000       0.00000000       0.00000000       0.00000000       0.00000000
H        4.20923268       4.05033604      12.29121606        2       1.00000000       0.00000000       0.00000000       0.00000000       0.00000000       0.00000000       0.00000000
H        0.00000000       0.00000000      14.58243212        1       1.00000000       0.00000000       0.00000000       0.00000000       0.00000000       0.00000000       0.00000000
H        2.80615512       0.00000000      14.58243212        1       1.00000000       0.00000000       0.00000000       0.00000000       0.00000000       0.00000000       0.00000000
H        1.40307756       2.43020162      14.58243212        1       1.00000000       0.00000000       0.00000000       0.00000000       0.00000000       0.00000000       0.00000000
H        4.20923268       2.43020162      14.58243212        1       1.00000000       0.00000000       0.00000000       0.00000000       0.00000000       0.00000000       0.00000000
H        2.80615517       3.24026965       5.56548749        0       1.00000000      -0.00000159       0.00000172       0.00000061       0.00000195      -0.00000022       0.00000089
H        5.61231090       3.24027056       5.56548579        0       1.00000000      -0.00000029      -0.00000045      -0.00000032      -0.00000106      -0.00000265       0.00000304
H        1.40307818       0.81006917       5.56548514        0       1.00000000       0.00000102      -0.00000203       0.00000012       0.00000305      -0.00000210      -0.00000009
H       -0.00000080       4.86040431       7.79181730        0       1.00000000      -0.00000041      -0.00000008       0.00000157      -0.00000206      -0.00000241       0.00000200
H        4.20923233       0.81006754       5.56548618        0       1.00000000       0.00000050      -0.00000132      -0.00000133      -0.00000178       0.00000195      -0.00000038
H        1.40307680       2.43020132       7.79181737        0       1.00000000       0.00000140       0.00000129      -0.00000028      -0.00000655       0.00000186      -0.00000348
H        4.20923329       2.43020290       7.79181830        0       1.00000000       0.00000100       0.00000070       0.00000185       0.00000488       0.00000529      -0.00000038
H        2.80615340       4.86040408       7.79181751        0       1.00000000       0.00000041       0.00000048      -0.00000029       0.00000203      -0.00000172      -0.00000165
20
Lattice="5.612310241546866 0.0 0.0 0.0 4.860403243099165 0.0 0.0 0.0 24.582432123328676" Properties=species:S:1:pos:R:3:tags:I:1:masses:R:1:momenta:R:3:forces:R:3 KEmax=25.851991011651638 iter=106884 volume=670.5618179858607 ns_energy=-13.634541830439083 last_walked_iter_clone=106697 energy=-13.634541830453477 stress="0.009309744758465474 -2.835909905900088e-09 8.66503329079966e-09 -2.835909905900088e-09 0.009309734725033407 -1.0005660720080206e-08 8.66503329079966e-09 -1.0005660720080206e-08 0.004280591324313388" pbc="T T T"
H        1.40307756       0.81006721      10.00000000        3       1.00000000       0.00000000       0.00000000       0.00000000       0.00000000       0.00000000       0.00000000
H        4.20923268       0.81006721      10.00000000        3       1.00000000       0.00000000       0.00000000       0.00000000       0.00000000       0.00000000       0.00000000
H        0.00000000       3.24026883      10.00000000        3       1.00000000       0.00000000       0.00000000       0.00000000       0.00000000       0.00000000       0.00000000
H        2.80615512       3.24026883      10.00000000        3       1.00000000       0.00000000       0.00000000       0.00000000       0.00000000       0.00000000       0.00000000
H        0.00000000       1.62013441      12.29121606        2       1.00000000       0.00000000       0.00000000       0.00000000       0.00000000       0.00000000       0.00000000
H        2.80615512       1.62013441      12.29121606        2       1.00000000       0.00000000       0.00000000       0.00000000       0.00000000       0.00000000       0.00000000
H        1.40307756       4.05033604      12.29121606        2       1.00000000       0.00000000       0.00000000       0.00000000       0.00000000       0.00000000       0.00000000
H        4.20923268       4.05033604      12.29121606        2       1.00000000       0.00000000       0.00000000       0.00000000       0.00000000       0.00000000       0.00000000
H        0.00000000       0.00000000      14.58243212        1       1.00000000       0.00000000       0.00000000       0.00000000       0.00000000       0.00000000       0.00000000
H        2.80615512       0.00000000      14.58243212        1       1.00000000       0.00000000       0.00000000       0.00000000       0.00000000       0.00000000       0.00000000
H        1.40307756       2.43020162      14.58243212        1       1.00000000       0.00000000       0.00000000       0.00000000       0.00000000       0.00000000       0.00000000
H        4.20923268       2.43020162      14.58243212        1       1.00000000       0.00000000       0.00000000       0.00000000       0.00000000       0.00000000       0.00000000
H        2.80615609       3.24026774       5.56548561        0       1.00000000      -0.00000055      -0.00000105       0.00000108       0.00000195      -0.00000022       0.00000089
H        0.00000113       3.24026805       5.56548516        0       1.00000000      -0.00000040       0.00000030      -0.00000066      -0.00000106      -0.00000265       0.00000304
H        1.40307810       0.81006757       5.56548692        0       1.00000000      -0.00000030       0.00000232      -0.00000156       0.00000305      -0.00000210      -0.00000009
H        5.61230985       4.86040377       7.79181896        0       1.00000000       0.00000087       0.00000066      -0.00000141      -0.00000206      -0.00000241       0.00000200
H        4.20923377       0.81006604       5.56548654        0       1.00000000      -0.00000011       0.00000113      -0.00000050      -0.00000178       0.00000195      -0.00000038
H        1.40307626       2.43020176       7.79181759        0       1.00000000       0.00000176       0.00000091      -0.00000063      -0.00000655       0.00000186      -0.00000348
H        4.20923226       2.43020228       7.79181837        0       1.00000000       0.00000002      -0.00000277      -0.00000053       0.00000488       0.00000529      -0.00000038
H        2.80615487      -0.00000034       7.79181838        0       1.00000000       0.00000045       0.00000088      -0.00000063       0.00000203      -0.00000172      -0.00000165
20
Lattice="5.612310241546866 0.0 0.0 0.0 4.860403243099165 0.0 0.0 0.0 24.582432123328676" Properties=species:S:1:pos:R:3:tags:I:1:masses:R:1:momenta:R:3:forces:R:3 KEmax=25.851991011651638 iter=106884 volume=670.5618179858607 ns_energy=-13.634541830440044 last_walked_iter_clone=106811 energy=-13.634541830453477 stress="0.009309744758465474 -2.835909905900088e-09 8.66503329079966e-09 -2.835909905900088e-09 0.009309734725033407 -1.0005660720080206e-08 8.66503329079966e-09 -1.0005660720080206e-08 0.004280591324313388" pbc="T T T"
H        1.40307756       0.81006721      10.00000000        3       1.00000000       0.00000000       0.00000000       0.00000000       0.00000000       0.00000000       0.00000000