20
Lattice="5.612310241546866 0.0 0.0 0.0 4.860403243099165 0.0 0.0 0.0 24.582432123328676" Properties=species:S:1:pos:R:3:tags:I:1:masses:R:1:momenta:R:3:forces:R:3 KEmax=25.851991011651638 iter=119999 volume=670.5618179858607 ns_energy=-13.634541830459346 last_walked_iter_clone=119681 energy=-13.634541830286748 stress="0.009309740817031148 7.712764640486792e-10 -1.742858231345016e-09 7.712764640486792e-10 0.009309729085577558 -1.3408342911032262e-09 -1.742858231345016e-09 -1.3408342911032262e-09 0.004280572524833271" pbc="T T T"
H        1.40307756       0.81006721      10.00000000        3       1.00000000       0.00000000       0.00000000       0.00000000       0.00000000       0.00000000       0.00000000
H        4.20923268       0.81006721      10.00000000        3       1.00000000       0.00000000       0.00000000       0.00000000       0.00000000       0.00000000       0.00000000
H        0.00000000       3.24026883      10.00000000        3       1.00000000       0.00000000       0.00000000       0.00000000       0.00000000       0.00000000       0.00000000
H        2.80615512       3.24026883      10.00000000        3       1.00000000       0.00000000       0.00000000       0.00000000       0.00000000       0.00000000       0.00000000
H        0.00000000       1.62013441      12.29121606        2       1.00000000       0.00000000       0.00000000       0.00000000       0.00000000       0.00000000       0.00000000
H        2.80615512       1.62013441      12.29121606        2       1.00000000       0.00000000       0.00000000       0.00000000       0.00000000       0.00000000       0.00000000
H        1.40307756       4.05033604      12.29121606        2       1.00000000       0.00000000       0.00000000       0.00000000       0.00000000       0.00000000       0.00000000
H        4.20923268       4.05033604      12.29121606        2       1.00000000       0.00000000       0.00000000       0.00000000       0.00000000       0.00000000       0.00000000
H        0.00000000       0.00000000      14.58243212        1       1.00000000       0.00000000       0.00000000       0.00000000       0.00000000       0.00000000       0.00000000
H        2.80615512       0.00000000      14.58243212        1       1.00000000       0.00000000       0.00000000       0.00000000       0.00000000       0.00000000       0.00000000
H        1.40307756       2.43020162      14.58243212        1       1.00000000       0.00000000       0.00000000       0.00000000       0.00000000       0.00000000       0.00000000
H        4.20923268       2.43020162      14.58243212        1       1.00000000       0.00000000       0.00000000       0.00000000       0.00000000       0.00000000       0.00000000
H        2.80615663       3.24026898       5.56548658        0       1.00000000       0.00000036       0.00000078      -0.00000001      -0.00000616      -0.00001617       0.00000070
H        0.00000177       3.24026851       5.56548539        0       1.00000000      -0.00000098       0.00000083      -0.00000070       0.00000753      -0.00001927       0.00000064
H        1.40307826       0.81006675       5.56548643        0       1.00000000      -0.00000054       0.00000029       0.00000008       0.00000249       0.00001747       0.00000433
H        0.00000013      -0.00000061       7.79181797        0       1.00000000      -0.00000090       0.00000009       0.00000020       0.00000115       0.00000891       0.00001242
H        4.20923407       0.81006745       5.56548574        0       1.00000000       0.00000135       0.00000088       0.00000018      -0.00000435       0.00001601       0.00000083
H        1.40307822       2.43020139       7.79181829        0       1.00000000       0.00000085      -0.00000009      -0.00000099      -0.00000030      -0.00000732      -0.00002450
H        4.20923371       2.43020160       7.79181795        0       1.00000000       0.00000076      -0.00000049      -0.00000141      -0.00000122      -0.00000981      -0.00000912
H        2.80615562      -0.00000019       7.79181801        0       1.00000000       0.00000087       0.00000145      -0.00000041       0.00000084       0.00001175       0.00000565
20
Lattice="5.612310241546866 0.0 0.0 0.0 4.860403243099165 0.0 0.0 0.0 24.582432123328676" Properties=species:S:1:pos:R:3:tags:I:1:masses:R:1:momenta:R:3:forces:R:3 KEmax=25.851991011651638 iter=119999 volume=670.5618179858607 ns_energy=-13.634541830459332 last_walked_iter_clone=119088 energy=-13.634541830286748 stress="0.009309740817031148 7.712764640486792e-10 -1.742858231345016e-09 7.712764640486792e-10 0.009309729085577558 -1.3408342911032262e-09 -1.742858231345016e-09 -1.3408342911032262e-09 0.004280572524833271" pbc="T T T"
H        1.40307756       0.81006721      10.00000000        3       1.00000000       0.00000000       0.00000000       0.00000000       0.00000000       0.00000000       0.00000000
H        4.20923268       0.81006721      10.00000000        3       1.00000000       0.00000000       0.00000000       0.00000000       0.00000000       0.00000000       0.00000000
H        0.00000000       3.24026883      10.00000000        3       1.00000000       0.00000000       0.00000000       0.00000000       0.00000000       0.00000000       0.00000000
H        2.80615512       3.24026883      10.00000000        3       1.00000000       0.00000000       0.00000000       0.00000000       0.00000000       0.00000000       0.00000000
H        0.00000000       1.62013441      12.29121606        2       1.00000000       0.00000000       0.00000000       0.00000000       0.00000000       0.00000000       0.00000000
H        2.80615512       1.62013441      12.29121606        2       1.00000000       0.00000000       0.00000000       0.00000000       0.00000000       0.00000000       0.00000000
H        1.40307756       4.05033604      12.29121606        2       1.00000000       0.00000000       0.00000000       0.00000000       0.00000000       0.00000000       0.00000000
H        4.20923268       4.05033604      12.29121606        2       1.00000000       0.00000000       0.00000000       0.00000000       0.00000000       0.00000000       0.00000000
H        0.00000000       0.00000000      14.58243212        1       1.00000000       0.00000000       0.00000000       0.00000000       0.00000000       0.00000000       0.00000000
H        2.80615512       0.00000000      14.58243212        1       1.00000000       0.00000000       0.00000000       0.00000000       0.00000000       0.00000000       0.00000000
H        1.40307756       2.43020162      14.58243212        1       1.00000000       0.00000000       0.00000000       0.00000000       0.00000000       0.00000000       0.00000000
H        4.20923268       2.43020162      14.58243212        1       1.00000000       0.00000000       0.00000000       0.00000000       0.00000000       0.00000000       0.00000000
H        2.80615497       3.24026871       5.56548574        0       1.00000000       0.00000089      -0.00000017      -0.00000108      -0.00000616      -0.00001617       0.00000070
H        5.61231021       3.24026947       5.56548600        0       1.00000000       0.00000069      -0.00000056      -0.00000016       0.00000753      -0.00001927       0.00000064
H        1.40307620       0.81006702       5.56548605        0       1.00000000       0.00000036       0.00000221       0.00000045       0.00000249       0.00001747       0.00000433
H        5.61230989      -0.00000011       7.79181828        0       1.00000000      -0.00000049       0.00000086      -0.00000084       0.00000115       0.00000891       0.00001242
H        4.20923157       0.81006789       5.56548564        0       1.00000000       0.00000078      -0.00000037      -0.00000023      -0.00000435       0.00001601       0.00000083
H        1.40307751       2.43020182       7.79181777        0       1.00000000       0.00000053      -0.00000099      -0.00000012      -0.00000030      -0.00000732      -0.00002450
H        4.20923313       2.43020148       7.79181768        0       1.00000000       0.00000042      -0.00000161      -0.00000053      -0.00000122      -0.00000981      -0.00000912
H        2.80615503       0.00000014       7.79181733        0       1.00000000      -0.00000057       0.00000047       0.00000082       0.00000084       0.00001175       0.00000565
20
Lattice="5.612310241546866 0.0 0.0 0.0 4.860403243099165 0.0 0.0 0.0 24.582432123328676" Properties=species:S:1:pos:R:3:tags:I:1:masses:R:1:momenta:R:3:forces:R:3 KEmax=25.851991011651638 iter=119999 volume=670.5618179858607 ns_energy=-13.634541830459321 last_walked_iter_clone=119978 energy=-13.634541830286748 stress="0.009309740817031148 7.712764640486792e-10 -1.742858231345016e-09 7.712764640486792e-10 0.009309729085577558 -1.3408342911032262e-09 -1.742858231345016e-09 -1.3408342911032262e-09 0.004280572524833271" pbc="T T T"
H        1.40307756       0.81006721      10.00000000        3       1.00000000       0.00000000       0.00000000       0.00000000       0.00000000       0.00000000       0.00000000
H        4.20923268       0.81006721      10.00000000        3       1.00000000       0.00000000       0.00000000       0.00000000       0.00000000       0.00000000       0.00000000
H        0.00000000       3.24026883      10.00000000        3       1.00000000       0.00000000       0.00000000       0.00000000       0.00000000       0.00000000       0.00000000
H        2.80615512       3.24026883      10.00000000        3       1.00000000       0.00000000       0.00000000       0.00000000       0.00000000       0.00000000       0.00000000
H        0.00000000       1.62013441      12.29121606        2       1.00000000       0.00000000       0.00000000       0.00000000       0.00000000       0.00000000       0.00000000
H        2.80615512       1.62013441      12.29121606        2       1.00000000       0.00000000       0.00000000       0.00000000       0.00000000       0.00000000       0.00000000
H        1.40307756       4.05033604      12.29121606        2       1.00000000       0.00000000       0.00000000       0.00000000       0.00000000       0.00000000       0.00000000
H        4.20923268       4.05033604      12.29121606        2       1.00000000       0.00000000       0.00000000       0.00000000       0.00000000       0.00000000       0.00000000
H        0.00000000       0.00000000      14.58243212        1       1.00000000       0.00000000       0.00000000       0.00000000       0.00000000       0.00000000       0.00000000
H        2.80615512       0.00000000      14.58243212        1       1.00000000       0.00000000       0.00000000       0.00000000       0.00000000       0.00000000       0.00000000
H        1.40307756       2.43020162      14.58243212        1       1.00000000       0.00000000       0.00000000       0.00000000       0.00000000       0.00000000       0.00000000
H        4.20923268       2.43020162      14.58243212        1       1.00000000       0.00000000       0.00000000       0.00000000       0.00000000       0.00000000       0.00000000
H        2.80615568       3.24026838       5.56548523        0       1.00000000      -0.00000104       0.00000070       0.00000069      -0.00000616      -0.00001617       0.00000070
H        5.61231043       3.24026848       5.56548551        0       1.00000000      -0.00000029       0.00000086       0.00000153       0.00000753      -0.00001927       0.00000064
H        1.40307774       0.81006703       5.56548578        0       1.00000000       0.00000022      -0.00000082      -0.00000093       0.00000249       0.00001747       0.00000433
H        5.61230973       4.86040339       7.79181758        0       1.00000000       0.00000037       0.00000025      -0.00000110       0.00000115       0.00000891       0.00001242
H        4.20923244       0.81006716       5.56548565        0       1.00000000      -0.00000003      -0.00000073      -0.00000122      -0.00000435       0.00001601       0.00000083
H        1.40307824       2.43020150       7.79181745        0       1.00000000       0.00000012       0.00000141      -0.00000032      -0.00000030      -0.00000732      -0.00002450
H        4.20923310       2.43020062       7.79181743        0       1.00000000      -0.00000045      -0.00000059      -0.00000016      -0.00000122      -0.00000981      -0.00000912
H        2.80615510      -0.00000029       7.79181826        0       1.00000000       0.00000014       0.00000000       0.00000036       0.00000084       0.00001175       0.00000565
20
Lattice="5.612310241546866 0.0 0.0 0.0 4.860403243099165 0.0 0.0 0.0 24.582432123328676" Properties=species:S:1:pos:R:3:tags:I:1:masses:R:1:momenta:R:3:forces:R:3 KEmax=25.851991011651638 iter=119999 volume=670.5618179858607 ns_energy=-13.634541830459407 last_walked_iter_clone=118437 energy=-13.634541830286748 stress="0.009309740817031148 7.712764640486792e-10 -1.742858231345016e-09 7.712764640486792e-10 0.009309729085577558 -1.3408342911032262e-09 -1.742858231345016e-09 -1.3408342911032262e-09 0.004280572524833271" pbc="T T T"
H        1.40307756       0.81006721      10.00000000        3       1.00000000       0.00000000       0.00000000       0.00000000       0.00000000       0.00000000       0.00000000
H        4.20923268       0.81006721      10.00000000        3       1.00000000       0.00000000       0.00000000       0.00000000       0.00000000       0.00000000       0.00000000
H        0.00000000       3.24026883      10.00000000        3       1.00000000       0.00000000       0.00000000       0.00000000       0.00000000       0.00000000       0.00000000
H        2.80615512       3.24026883      10.00000000        3       1.00000000       0.00000000       0.00000000       0.00000000       0.00000000       0.00000000       0.00000000
H        0.00000000       1.62013441      12.29121606        2       1.00000000       0.00000000       0.00000000       0.00000000       0.00000000       0.00000000       0.00000000
H        2.80615512       1.62013441      12.29121606        2       1.00000000       0.00000000       0.00000000       0.00000000       0.00000000       0.00000000       0.00000000
H        1.40307756       4.05033604      12.29121606        2       1.00000000       0.00000000       0.00000000       0.00000000       0.00000000       0.00000000       0.00000000
H        4.20923268       4.05033604      12.29121606        2       1.00000000       0.00000000       0.00000000       0.00000000       0.00000000       0.00000000       0.00000000
H        0.00000000       0.00000000      14.58243212        1       1.00000000       0.00000000       0.00000000       0.00000000       0.00000000       0.00000000       0.00000000
H        2.80615512       0.00000000      14.58243212        1       1.00000000       0.00000000       0.00000000       0.00000000       0.00000000       0.00000000       0.00000000
H        1.40307756       2.43020162      14.58243212        1       1.00000000       0.00000000       0.00000000       0.00000000       0.00000000       0.00000000       0.00000000
H        4.20923268       2.43020162      14.58243212        1       1.00000000       0.00000000       0.00000000       0.00000000       0.00000000       0.00000000       0.00000000
H        2.80615586       3.24026912       5.56548674        0       1.00000000       0.00000010       0.00000031      -0.00000097      -0.00000616      -0.00001617       0.00000070
H        5.61231105       3.24026910       5.56548562        0       1.00000000      -0.00000119      -0.00000016      -0.00000033       0.00000753      -0.00001927       0.00000064
H        1.40307748       0.81006696       5.56548646        0       1.00000000      -0.00000037      -0.00000004      -0.00000023       0.00000249       0.00001747       0.00000433
H       -0.00000030      -0.00000045       7.79181814        0       1.00000000      -0.00000100      -0.00000091       0.00000068       0.00000115       0.00000891       0.00001242
H        4.20923330       0.81006780       5.56548583        0       1.00000000       0.00000017       0.00000018       0.00000115      -0.00000435       0.00001601       0.00000083
H        1.40307791       2.43020154       7.79181816        0       1.00000000      -0.00000048       0.00000027      -0.00000018      -0.00000030      -0.00000732      -0.00002450
H        4.20923306       2.43020158       7.79181808        0       1.00000000       0.00000160      -0.00000136      -0.00000061      -0.00000122      -0.00000981      -0.00000912
H        2.80615500       4.86040333       7.79181785        0       1.00000000       0.00000048       0.00000223      -0.00000015       0.00000084       0.00001175       0.00000565
20
Lattice="5.612310241546866 0.0 0.0 0.0 4.860403243099165 0.0 0.0 0.0 24.582432123328676" Properties=species:S:1:pos:R:3:tags:I:1:masses:R:1:momenta:R:3:forces:R:3 KEmax=25.851991011651638 iter=119999 volume=670.5618179858607 ns_energy=-13.634541830459344 last_walked_iter_clone=118984 energy=-13.634541830286748 stress="0.009309740817031148 7.712764640486792e-10 -1.742858231345016e-09 7.712764640486792e-10 0.009309729085577558 -1.3408342911032262e-09 -1.742858231345016e-09 -1.3408342911032262e-09 0.004280572524833271" pbc="T T T"
H        1.40307756       0.81006721      10.00000000        3       1.00000000       0.00000000       0.00000000       0.00000000       0.00000000       0.00000000       0.00000000
H        4.20923268       0.81006721      10.00000000        3       1.00000000       0.00000000       0.00000000       0.00000000       0.00000000       0.00000000       0.00000000
H        0.00000000       3.24026883      10.00000000        3       1.00000000       0.00000000       0.00000000       0.00000000       0.00000000       0.00000000       0.00000000
H        2.80615512       3.24026883      10.00000000        3       1.00000000       0.00000000       0.00000000       0.00000000       0.00000000       0.00000000       0.00000000
H        0.00000000       1.62013441      12.29121606        2       1.00000000       0.00000000       0.00000000       0.00000000       0.00000000       0.00000000       0.00000000
H        2.80615512       1.62013441      12.29121606        2       1.00000000       0.00000000       0.00000000       0.00000000       0.00000000       0.00000000       0.00000000
H        1.40307756       4.05033604      12.29121606        2       1.00000000       0.00000000       0.00000000       0.00000000       0.00000000       0.00000000       0.00000000
H        4.20923268       4.05033604      12.29121606        2       1.00000000       0.00000000       0.00000000       0.00000000       0.00000000       0.00000000       0.00000000
H        0.00000000       0.00000000      14.58243212        1       1.00000000       0.00000000       0.00000000       0.00000000       0.00000000       0.00000000       0.00000000
H        2.80615512       0.00000000      14.58243212        1       1.00000000       0.00000000       0.00000000       0.00000000       0.00000000       0.00000000       0.00000000
H        1.40307756       2.43020162      14.58243212        1       1.00000000       0.00000000       0.00000000       0.00000000       0.00000000       0.00000000       0.00000000
H        4.20923268       2.43020162      14.58243212        1       1.00000000       0.00000000       0.00000000       0.00000000       0.00000000       0.00000000       0.00000000
H        2.80615527       3.24026887       5.56548606        0       1.00000000       0.00000028       0.00000061      -0.00000023      -0.00000616      -0.00001617       0.00000070
H        5.61231021       3.24026909       5.56548559        0       1.00000000       0.00000025      -0.00000062       0.00000063       0.00000753      -0.00001927       0.00000064
H        1.40307765       0.81006785       5.56548720        0       1.00000000       0.00000093      -0.00000080      -0.00000058       0.00000249       0.00001747       0.00000433
H        0.00000022       4.86040268       7.79181842        0       1.00000000      -0.00000143      -0.00000099       0.00000003       0.00000115       0.00000891       0.00001242
H        4.20923313       0.81006723       5.56548700        0       1.00000000      -0.00000043       0.00000018      -0.00000017      -0.00000435       0.00001601       0.00000083
H        1.40307747       2.43020184       7.79181800        0       1.00000000      -0.00000046       0.00000041      -0.00000184      -0.00000030      -0.00000732      -0.00002450
H        4.20923254       2.43020143       7.79181755        0       1.00000000      -0.00000101       0.00000034       0.00000062      -0.00000122      -0.00000981      -0.00000912
H        2.80615505       4.86040312       7.79181792        0       1.00000000      -0.00000118      -0.00000167      -0.00000073       0.00000084       0.00001175       0.00000565
20
Lattice="5.612310241546866 0.0 0.0 0.0 4.860403243099165 0.0 0.0 0.0 24.582432123328676" Properties=species:S:1:pos:R:3:tags:I:1:masses:R:1:momenta:R:3:forces:R:3 KEmax=25.851991011651638 iter=119999 volume=670.5618179858607 ns_energy=-13.634541830459394 last_walked_iter_clone=119713 energy=-13.634541830286748 stress="0.009309740817031148 7.712764640486792e-10 -1.742858231345016e-09 7.712764640486792e-10 0.009309729085577558 -1.3408342911032262e-09 -1.742858231345016e-09 -1.3408342911032262e-09 0.004280572524833271" pbc="T T T"
H        1.40307756       0.81006721      10.00000000        3       1.00000000       0.00000000       0.00000000       0.00000000       0.00000000       0.00000000       0.00000000
H        4.20923268       0.81006721      10.00000000        3       1.00000000       0.00000000       0.00000000       0.00000000       0.00000000       0.00000000       0.00000000
H        0.00000000       3.24026883      10.00000000        3       1.00000000       0.00000000       0.00000000       0.00000000       0.00000000       0.00000000       0.00000000
H        2.80615512       3.24026883      10.00000000        3       1.00000000       0.00000000       0.00000000       0.00000000       0.00000000       0.00000000       0.00000000
H        0.00000000       1.62013441      12.29121606        2       1.00000000       0.00000000       0.00000000       0.00000000       0.00000000       0.00000000       0.00000000
H        2.80615512       1.62013441      12.29121606        2       1.00000000       0.00000000       0.00000000       0.00000000       0.00000000       0.00000000       0.00000000
H        1.40307756       4.05033604      12.29121606        2       1.00000000       0.00000000       0.00000000       0.00000000       0.00000000       0.00000000       0.00000000
H        4.20923268       4.05033604      12.29121606        2       1.00000000       0.00000000       0.00000000       0.00000000       0.00000000       0.00000000       0.00000000
H        0.00000000       0.00000000      14.58243212        1       1.00000000       0.00000000       0.00000000       0.00000000       0.00000000       0.00000000       0.00000000
H        2.80615512       0.00000000      14.58243212        1       1.00000000       0.00000000       0.00000000       0.00000000       0.00000000       0.00000000       0.00000000
H        1.40307756       2.43020162      14.58243212        1       1.00000000       0.00000000       0.00000000       0.00000000       0.00000000       0.00000000       0.00000000
H        4.20923268       2.43020162      14.58243212        1       1.00000000       0.00000000       0.00000000       0.00000000       0.00000000       0.00000000       0.00000000
H        2.80615619       3.24026933       5.56548616        0       1.00000000      -0.00000085      -0.00000010      -0.00000020      -0.00000616      -0.00001617       0.00000070
H        0.00000148       3.24026976       5.56548621        0       1.00000000       0.00000056       0.00000049      -0.00000059       0.00000753      -0.00001927       0.00000064
H        1.40307895       0.81006827       5.56548673        0       1.00000000      -0.00000096      -0.00000101       0.00000040       0.00000249       0.00001747       0.00000433
H        0.00000031       4.86040363       7.79181725        0       1.00000000      -0.00000032      -0.00000022      -0.00000049       0.00000115       0.00000891       0.00001242
H        4.20923386       0.81006840       5.56548500        0       1.00000000       0.00000001       0.00000026      -0.00000024      -0.00000435       0.00001601       0.00000083
H        1.40307786       2.43020212       7.79181819        0       1.00000000       0.00000024       0.00000007      -0.00000099      -0.00000030      -0.00000732      -0.00002450
H        4.20923283       2.43020209       7.79181811        0       1.00000000      -0.00000182       0.00000087      -0.00000023      -0.00000122      -0.00000981      -0.00000912
H        2.80615549       0.00000037       7.79181788        0       1.00000000       0.00000116       0.00000031      -0.00000172       0.00000084       0.00001175       0.00000565
20
Lattice="5.612310241546866 0.0 0.0 0.0 4.860403243099165 0.0 0.0 0.0 24.582432123328676" Properties=species:S:1:pos:R:3:tags:I:1:masses:R:1:momenta:R:3:forces:R:3 KEmax=25.851991011651638 iter=119999 volume=670.5618179858607 ns_energy=-13.634541830459534 last_walked_iter_clone=119678 energy=-13.634541830286748 stress="0.009309740817031148 7.712764640486792e-10 -1.742858231345016e-09 7.712764640486792e-10 0.009309729085577558 -1.3408342911032262e-09 -1.742858231345016e-09 -1.3408342911032262e-09 0.004280572524833271" pbc="T T T"
H        1.40307756       0.81006721      10.00000000        3       1.00000000       0.00000000       0.00000000       0.00000000       0.00000000       0.00000000       0.00000000
H        4.20923268       0.81006721      10.00000000        3       1.00000000       0.00000000       0.00000000       0.00000000       0.00000000       0.00000000       0.00000000
H        0.00000000       3.24026883      10.00000000        3       1.00000000       0.00000000       0.00000000       0.00000000       0.00000000       0.00000000       0.00000000
H        2.80615512       3.24026883      10.00000000        3       1.00000000       0.00000000       0.00000000       0.00000000       0.00000000       0.00000000       0.00000000
H        0.00000000       1.62013441      12.29121606        2       1.00000000       0.00000000       0.00000000       0.00000000       0.00000000       0.00000000       0.00000000
H        2.80615512       1.62013441      12.29121606        2       1.00000000       0.00000000       0.00000000       0.00000000       0.00000000       0.00000000       0.00000000
H        1.40307756       4.05033604      12.29121606        2       1.00000000       0.00000000       0.00000000       0.00000000       0.00000000       0.00000000       0.00000000
H        4.20923268       4.05033604      12.29121606        2       1.00000000       0.00000000       0.00000000       0.00000000       0.00000000       0.00000000       0.00000000
H        0.00000000       0.00000000      14.58243212        1       1.00000000       0.00000000       0.00000000       0.00000000       0.00000000       0.00000000       0.00000000
H        2.80615512       0.00000000      14.58243212        1       1.00000000       0.00000000       0.00000000       0.00000000       0.00000000       0.00000000       0.00000000
H        1.40307756       2.43020162      14.58243212        1       1.00000000       0.00000000       0.00000000       0.00000000       0.00000000       0.00000000       0.00000000
H        4.20923268       2.43020162      14.58243212        1       1.00000000       0.00000000       0.00000000       0.00000000       0.00000000       0.00000000       0.00000000
H        2.80615551       3.24026952       5.56548690        0       1.00000000       0.00000058       0.00000022      -0.00000021      -0.00000616      -0.00001617       0.00000070
H        5.61231030       3.24026955       5.56548680        0       1.00000000      -0.00000136       0.00000055      -0.00000057       0.00000753      -0.00001927       0.00000064
H        1.40307786       0.81006840       5.56548644        0       1.00000000       0.00000077       0.00000041      -0.00000021       0.00000249       0.00001747       0.00000433
H       -0.00000019       0.00000057       7.79181831        0       1.00000000      -0.00000051       0.00000082      -0.00000063       0.00000115       0.00000891       0.00001242
H        4.20923314       0.81006747       5.56548654        0       1.00000000       0.00000051       0.00000098       0.00000116      -0.00000435       0.00001601       0.00000083
H        1.40307719       2.43020193       7.79181785        0       1.00000000      -0.00000042      -0.00000037      -0.00000041      -0.00000030      -0.00000732      -0.00002450
H        4.20923210       2.43020163       7.79181844        0       1.00000000       0.00000067       0.00000141      -0.00000135      -0.00000122      -0.00000981      -0.00000912
H        2.80615492      -0.00000023       7.79181777        0       1.00000000      -0.00000158       0.00000012      -0.00000005       0.00000084       0.00001175       0.00000565
20
Lattice="5.612310241546866 0.0 0.0 0.0 4.860403243099165 0.0 0.0 0.0 24.582432123328676" Properties=species:S:1:pos:R:3:tags:I:1:masses:R:1:momenta:R:3:forces:R:3 KEmax=25.851991011651638 iter=119999 volume=670.5618179858607 ns_energy=-13.634541830459355 last_walked_iter_clone=119682 energy=-13.634541830286748 stress="0.009309740817031148 7.712764640486792e-10 -1.742858231345016e-09 7.712764640486792e-10 0.009309729085577558 -1.3408342911032262e-09 -1.742858231345016e-09 -1.3408342911032262e-09 0.004280572524833271" pbc="T T T"
H        1.40307756       0.81006721      10.00000000        3       1.00000000       0.00000000       0.00000000       0.00000000       0.00000000       0.00000000       0.00000000