20
Lattice="5.612310241546866 0.0 0.0 0.0 4.860403243099165 0.0 0.0 0.0 24.582432123328676" Properties=species:S:1:pos:R:3:tags:I:1:masses:R:1:momenta:R:3 KEmax=25.851991011651638 iter=99 volume=670.5618179858607 ns_energy=299.34707853603896 last_walked_iter_clone=59 ns_P=0.0 config_n_global=99 ns_KE=23.898813053724222 pbc="T T T"
H        1.40307756       0.81006721      10.00000000        3       1.00000000       0.00000000       0.00000000       0.00000000
H        4.20923268       0.81006721      10.00000000        3       1.00000000       0.00000000       0.00000000       0.00000000
H        0.00000000       3.24026883      10.00000000        3       1.00000000       0.00000000       0.00000000       0.00000000
H        2.80615512       3.24026883      10.00000000        3       1.00000000       0.00000000       0.00000000       0.00000000
H        0.00000000       1.62013441      12.29121606        2       1.00000000       0.00000000       0.00000000       0.00000000
H        2.80615512       1.62013441      12.29121606        2       1.00000000       0.00000000       0.00000000       0.00000000
H        1.40307756       4.05033604      12.29121606        2       1.00000000       0.00000000       0.00000000       0.00000000
H        4.20923268       4.05033604      12.29121606        2       1.00000000       0.00000000       0.00000000       0.00000000
H        0.00000000       0.00000000      14.58243212        1       1.00000000       0.00000000       0.00000000       0.00000000
H        2.80615512       0.00000000      14.58243212        1       1.00000000       0.00000000       0.00000000       0.00000000
H        1.40307756       2.43020162      14.58243212        1       1.00000000       0.00000000       0.00000000       0.00000000
H        4.20923268       2.43020162      14.58243212        1       1.00000000       0.00000000       0.00000000       0.00000000
H        2.60120338       4.79149542       3.53582543        0       1.00000000      -1.97313995       0.77747097      -1.75950153
H        3.49096137       0.33059641       1.67607930        0       1.00000000      -1.64940212       0.91036248       0.61543310
H        5.14951041       1.36068305      17.08976820        0       1.00000000       2.57789704      -0.11810574      -1.01736199
H        3.72154968       1.38359220      22.50106612        0       1.00000000       0.50709455      -0.53588010       0.39510036
H        4.77959104       2.75248610      20.88163801        0       1.00000000       0.06747346       0.42405484       0.03728883
H        1.81899850       0.78104639       4.40633039        0       1.00000000       0.78168799       1.05948018      -1.36787219
H        4.95334382       4.33728494      19.79946995        0       1.00000000       0.88361189       2.36696238       1.36610794
H        1.10050470       2.89270892       4.43305964        0       1.00000000       2.40385111      -3.15465375       0.33286970
20
Lattice="5.612310241546866 0.0 0.0 0.0 4.860403243099165 0.0 0.0 0.0 24.582432123328676" Properties=species:S:1:pos:R:3:tags:I:1:masses:R:1:momenta:R:3 KEmax=25.851991011651638 iter=199 volume=670.5618179858607 ns_energy=39.67156291790858 last_walked_iter_clone=161 ns_P=0.0 config_n_global=199 ns_KE=23.821549674028756 pbc="T T T"
H        1.40307756       0.81006721      10.00000000        3       1.00000000       0.00000000       0.00000000       0.00000000
H        4.20923268       0.81006721      10.00000000        3       1.00000000       0.00000000       0.00000000       0.00000000
H        0.00000000       3.24026883      10.00000000        3       1.00000000       0.00000000       0.00000000       0.00000000
H        2.80615512       3.24026883      10.00000000        3       1.00000000       0.00000000       0.00000000       0.00000000
H        0.00000000       1.62013441      12.29121606        2       1.00000000       0.00000000       0.00000000       0.00000000
H        2.80615512       1.62013441      12.29121606        2       1.00000000       0.00000000       0.00000000       0.00000000
H        1.40307756       4.05033604      12.29121606        2       1.00000000       0.00000000       0.00000000       0.00000000
H        4.20923268       4.05033604      12.29121606        2       1.00000000       0.00000000       0.00000000       0.00000000
H        0.00000000       0.00000000      14.58243212        1       1.00000000       0.00000000       0.00000000       0.00000000
H        2.80615512       0.00000000      14.58243212        1       1.00000000       0.00000000       0.00000000       0.00000000
H        1.40307756       2.43020162      14.58243212        1       1.00000000       0.00000000       0.00000000       0.00000000
H        4.20923268       2.43020162      14.58243212        1       1.00000000       0.00000000       0.00000000       0.00000000
H        0.28226765       1.51476310      16.78838603        0       1.00000000       1.49974741      -1.53517154       1.20092342
H        4.06909527       3.86264353      20.70929858        0       1.00000000      -0.63383625       1.10654856       1.22729173
H        5.23775650       3.03125678      17.39128045        0       1.00000000       0.24916712       1.89766642       1.24482070
H        3.34104822       4.51417102       1.67778973        0       1.00000000      -2.38314170      -0.72991196      -0.86020631
H        1.95617022       1.66092274      22.03700977        0       1.00000000      -1.05371535      -0.97607853       0.71457868
H        1.32273803       3.64454343       2.72486748        0       1.00000000      -0.30986380      -3.52252008       0.52513448
H        3.74905044       1.84770468       1.55901700        0       1.00000000      -1.20191173      -0.21097391      -0.22391160
H        0.66292077       3.54190953      22.79058836        0       1.00000000      -1.16399475       2.79510658       0.48704571
20
Lattice="5.612310241546866 0.0 0.0 0.0 4.860403243099165 0.0 0.0 0.0 24.582432123328676" Properties=species:S:1:pos:R:3:tags:I:1:masses:R:1:momenta:R:3 KEmax=25.851991011651638 iter=299 volume=670.5618179858607 ns_energy=17.40916092736736 last_walked_iter_clone=238 ns_P=0.0 config_n_global=299 ns_KE=24.518549202318084 pbc="T T T"
H        1.40307756       0.81006721      10.00000000        3       1.00000000       0.00000000       0.00000000       0.00000000
H        4.20923268       0.81006721      10.00000000        3       1.00000000       0.00000000       0.00000000       0.00000000
H        0.00000000       3.24026883      10.00000000        3       1.00000000       0.00000000       0.00000000       0.00000000
H        2.80615512       3.24026883      10.00000000        3       1.00000000       0.00000000       0.00000000       0.00000000
H        0.00000000       1.62013441      12.29121606        2       1.00000000       0.00000000       0.00000000       0.00000000
H        2.80615512       1.62013441      12.29121606        2       1.00000000       0.00000000       0.00000000       0.00000000
H        1.40307756       4.05033604      12.29121606        2       1.00000000       0.00000000       0.00000000       0.00000000
H        4.20923268       4.05033604      12.29121606        2       1.00000000       0.00000000       0.00000000       0.00000000
H        0.00000000       0.00000000      14.58243212        1       1.00000000       0.00000000       0.00000000       0.00000000
H        2.80615512       0.00000000      14.58243212        1       1.00000000       0.00000000       0.00000000       0.00000000
H        1.40307756       2.43020162      14.58243212        1       1.00000000       0.00000000       0.00000000       0.00000000
H        4.20923268       2.43020162      14.58243212        1       1.00000000       0.00000000       0.00000000       0.00000000
H        3.46400916       0.50241023       0.33352795        0       1.00000000      -1.15060595      -1.48220257      -1.15992553
H        0.84231866       1.72090998       5.16032788        0       1.00000000       0.84053958       0.69923510       2.84139167
H        1.83091708       2.05361547      23.83684083        0       1.00000000       1.02440753       0.09925935       0.71983362
H        4.49970448       4.03043123      23.11047574        0       1.00000000      -1.26570184      -0.42134113       0.22410656
H        1.58915576       0.25679126      20.33378197        0       1.00000000      -1.06154440       2.84283343      -1.96513128
H        0.18807459       3.97626912       0.60902925        0       1.00000000      -0.65561004      -2.08479841      -0.56839190
H        2.15479110       4.21859004      23.49775307        0       1.00000000      -2.56974070      -1.14272929       1.36894771
H        0.40426672       2.46979010      21.80582200        0       1.00000000      -0.75619441      -1.70223949      -0.26883166
20
Lattice="5.612310241546866 0.0 0.0 0.0 4.860403243099165 0.0 0.0 0.0 24.582432123328676" Properties=species:S:1:pos:R:3:tags:I:1:masses:R:1:momenta:R:3 KEmax=25.851991011651638 iter=399 volume=670.5618179858607 ns_energy=15.649680874309103 last_walked_iter_clone=352 ns_P=0.0 config_n_global=399 ns_KE=23.573158455224714 pbc="T T T"
H        1.40307756       0.81006721      10.00000000        3       1.00000000       0.00000000       0.00000000       0.00000000
H        4.20923268       0.81006721      10.00000000        3       1.00000000       0.00000000       0.00000000       0.00000000
H        0.00000000       3.24026883      10.00000000        3       1.00000000       0.00000000       0.00000000       0.00000000
H        2.80615512       3.24026883      10.00000000        3       1.00000000       0.00000000       0.00000000       0.00000000
H        0.00000000       1.62013441      12.29121606        2       1.00000000       0.00000000       0.00000000       0.00000000
H        2.80615512       1.62013441      12.29121606        2       1.00000000       0.00000000       0.00000000       0.00000000
H        1.40307756       4.05033604      12.29121606        2       1.00000000       0.00000000       0.00000000       0.00000000
H        4.20923268       4.05033604      12.29121606        2       1.00000000       0.00000000       0.00000000       0.00000000
H        0.00000000       0.00000000      14.58243212        1       1.00000000       0.00000000       0.00000000       0.00000000
H        2.80615512       0.00000000      14.58243212        1       1.00000000       0.00000000       0.00000000       0.00000000
H        1.40307756       2.43020162      14.58243212        1       1.00000000       0.00000000       0.00000000       0.00000000
H        4.20923268       2.43020162      14.58243212        1       1.00000000       0.00000000       0.00000000       0.00000000
H        1.81483906       1.94006295       1.87155720        0       1.00000000      -2.18108526      -0.41533464      -0.72428500
H        5.31057077       0.95738163      23.40285631        0       1.00000000       0.10570041       1.84994062      -0.07218750
H        2.93733721       3.57816691       3.24207208        0       1.00000000      -0.82730386       0.87582435       0.50223950
H        4.75410198       0.11475422       3.40018877        0       1.00000000      -1.61567027      -1.37721076      -0.19080939
H        0.93615614       3.04383181      21.48286198        0       1.00000000       1.32464281      -3.03432200      -1.44665926
H        1.93753625       3.50039058      18.84171499        0       1.00000000       1.52823559      -2.76070372       0.20190491
H        2.95629049       0.87907163       6.50539764        0       1.00000000      -1.85268286      -0.16019618      -1.88024789
H        2.56018355       1.67591734      16.50862357        0       1.00000000       0.20943487       1.04911914       0.90325358
20
Lattice="5.612310241546866 0.0 0.0 0.0 4.860403243099165 0.0 0.0 0.0 24.582432123328676" Properties=species:S:1:pos:R:3:tags:I:1:masses:R:1:momenta:R:3 KEmax=25.851991011651638 iter=499 volume=670.5618179858607 ns_energy=14.023840527216915 last_walked_iter_clone=453 ns_P=0.0 config_n_global=499 ns_KE=22.72897260012092 pbc="T T T"
H        1.40307756       0.81006721      10.00000000        3       1.00000000       0.00000000       0.00000000       0.00000000
H        4.20923268       0.81006721      10.00000000        3       1.00000000       0.00000000       0.00000000       0.00000000
H        0.00000000       3.24026883      10.00000000        3       1.00000000       0.00000000       0.00000000       0.00000000
H        2.80615512       3.24026883      10.00000000        3       1.00000000       0.00000000       0.00000000       0.00000000
H        0.00000000       1.62013441      12.29121606        2       1.00000000       0.00000000       0.00000000       0.00000000
H        2.80615512       1.62013441      12.29121606        2       1.00000000       0.00000000       0.00000000       0.00000000
H        1.40307756       4.05033604      12.29121606        2       1.00000000       0.00000000       0.00000000       0.00000000
H        4.20923268       4.05033604      12.29121606        2       1.00000000       0.00000000       0.00000000       0.00000000
H        0.00000000       0.00000000      14.58243212        1       1.00000000       0.00000000       0.00000000       0.00000000
H        2.80615512       0.00000000      14.58243212        1       1.00000000       0.00000000       0.00000000       0.00000000
H        1.40307756       2.43020162      14.58243212        1       1.00000000       0.00000000       0.00000000       0.00000000
H        4.20923268       2.43020162      14.58243212        1       1.00000000       0.00000000       0.00000000       0.00000000
H        5.62558143       2.54152205       7.76336907        0       1.00000000       0.94546505      -0.64041401      -0.42862915
H        1.24062802       3.75927197      20.25021031        0       1.00000000       0.32116094       0.47839008      -1.18356646
H        0.62536824       4.76572174       2.57892607        0       1.00000000       0.25010228       0.48337304      -0.41283210
H        3.81065748       0.81470950       3.18105954        0       1.00000000      -1.36283586      -0.73296675       0.93138802
H        1.50622789       0.59778146      24.28065136        0       1.00000000       2.57304474       2.42004461       0.64269776
H        1.11651414       2.58327863      22.47577240        0       1.00000000       2.54168473      -1.89842848       1.26795322
H        4.28864355       4.32358454      21.57535777        0       1.00000000       0.95705197       1.18633812       1.14269670
H        2.01241978       1.22895963      17.46669297        0       1.00000000       0.53221865      -1.69298598      -2.67730967
20
Lattice="5.612310241546866 0.0 0.0 0.0 4.860403243099165 0.0 0.0 0.0 24.582432123328676" Properties=species:S:1:pos:R:3:tags:I:1:masses:R:1:momenta:R:3 KEmax=25.851991011651638 iter=599 volume=670.5618179858607 ns_energy=12.654712977852123 last_walked_iter_clone=435 ns_P=0.0 config_n_global=599 ns_KE=21.53911313470811 pbc="T T T"
H        1.40307756       0.81006721      10.00000000        3       1.00000000       0.00000000       0.00000000       0.00000000
H        4.20923268       0.81006721      10.00000000        3       1.00000000       0.00000000       0.00000000       0.00000000
H        0.00000000       3.24026883      10.00000000        3       1.00000000       0.00000000       0.00000000       0.00000000
H        2.80615512       3.24026883      10.00000000        3       1.00000000       0.00000000       0.00000000       0.00000000
H        0.00000000       1.62013441      12.29121606        2       1.00000000       0.00000000       0.00000000       0.00000000
H        2.80615512       1.62013441      12.29121606        2       1.00000000       0.00000000       0.00000000       0.00000000
H        1.40307756       4.05033604      12.29121606        2       1.00000000       0.00000000       0.00000000       0.00000000
H        4.20923268       4.05033604      12.29121606        2       1.00000000       0.00000000       0.00000000       0.00000000
H        0.00000000       0.00000000      14.58243212        1       1.00000000       0.00000000       0.00000000       0.00000000
H        2.80615512       0.00000000      14.58243212        1       1.00000000       0.00000000       0.00000000       0.00000000
H        1.40307756       2.43020162      14.58243212        1       1.00000000       0.00000000       0.00000000       0.00000000
H        4.20923268       2.43020162      14.58243212        1       1.00000000       0.00000000       0.00000000       0.00000000
H        3.61639773       1.94209796       1.04134758        0       1.00000000      -0.38032025      -1.38974580       0.68207981
H        5.22597546       1.37078895       7.81499162        0       1.00000000       1.02325985      -0.50408730      -0.30630911
H        4.01376511       3.32358383      23.09745137        0       1.00000000       0.61815393       1.78097316       2.85218561
H        2.99471267       1.14149782      18.81154082        0       1.00000000       2.66708519      -1.55305167      -0.78057891
H        3.35423542       3.86021925      17.32628065        0       1.00000000      -0.77304106       0.99597559       2.01717075
H        0.61554497       0.40812432      20.54120427        0       1.00000000       0.79305842       1.27961487      -1.83737567
H        0.74819540       2.38779549       0.49855417        0       1.00000000       1.75116493       1.32260182      -0.84316032
H        0.41137382       4.45155384      22.97887868        0       1.00000000      -0.35683269      -0.07026443      -0.59876930
20
Lattice="5.612310241546866 0.0 0.0 0.0 4.860403243099165 0.0 0.0 0.0 24.582432123328676" Properties=species:S:1:pos:R:3:tags:I:1:masses:R:1:momenta:R:3 KEmax=25.851991011651638 iter=699 volume=670.5618179858607 ns_energy=11.414381466233092 last_walked_iter_clone=629 ns_P=0.0 config_n_global=699 ns_KE=18.336875851589607 pbc="T T T"
H        1.40307756       0.81006721      10.00000000        3       1.00000000       0.00000000       0.00000000       0.00000000
H        4.20923268       0.81006721      10.00000000        3       1.00000000       0.00000000       0.00000000       0.00000000
H        0.00000000       3.24026883      10.00000000        3       1.00000000       0.00000000       0.00000000       0.00000000
H        2.80615512       3.24026883      10.00000000        3       1.00000000       0.00000000       0.00000000       0.00000000
H        0.00000000       1.62013441      12.29121606        2       1.00000000       0.00000000       0.00000000       0.00000000
H        2.80615512       1.62013441      12.29121606        2       1.00000000       0.00000000       0.00000000       0.00000000
H        1.40307756       4.05033604      12.29121606        2       1.00000000       0.00000000       0.00000000       0.00000000
H        4.20923268       4.05033604      12.29121606        2       1.00000000       0.00000000       0.00000000       0.00000000
H        0.00000000       0.00000000      14.58243212        1       1.00000000       0.00000000       0.00000000       0.00000000
H        2.80615512       0.00000000      14.58243212        1       1.00000000       0.00000000       0.00000000       0.00000000
H        1.40307756       2.43020162      14.58243212        1       1.00000000       0.00000000       0.00000000       0.00000000
H        4.20923268       2.43020162      14.58243212        1       1.00000000       0.00000000       0.00000000       0.00000000
H        4.25243459       3.36163211      21.51949934        0       1.00000000      -0.02271417       0.25608200       0.94390883
H        3.00387352       3.80779272      17.21493164        0       1.00000000      -1.64832744       1.13475983       1.13440318
H        1.78950439       2.24315499      19.91617326        0       1.00000000       0.22199301      -2.11759960       0.49881087
H        3.44848521       1.98281893      18.61585570        0       1.00000000      -0.64564665       1.17493115      -0.34621863
H        1.67207521       0.08662949      18.83305338        0       1.00000000      -3.50503570       0.81470595       1.96523388
H        0.22405033      -0.02767783      16.98928244        0       1.00000000       1.96667410       1.36874313       0.06577221
H        1.70010838       2.30911483      23.38913005        0       1.00000000      -0.23232372       0.20430293      -0.05284886
H        5.27060291       0.08289162      23.14313004        0       1.00000000       0.52281216       0.73636307      -0.50479956
20
Lattice="5.612310241546866 0.0 0.0 0.0 4.860403243099165 0.0 0.0 0.0 24.582432123328676" Properties=species:S:1:pos:R:3:tags:I:1:masses:R:1:momenta:R:3 KEmax=25.851991011651638 iter=799 volume=670.5618179858607 ns_energy=10.12909481336862 last_walked_iter_clone=765 ns_P=0.0 config_n_global=799 ns_KE=15.728708077918576 pbc="T T T"
H        1.40307756       0.81006721      10.00000000        3       1.00000000       0.00000000       0.00000000       0.00000000
H        4.20923268       0.81006721      10.00000000        3       1.00000000       0.00000000       0.00000000       0.00000000
H        0.00000000       3.24026883      10.00000000        3       1.00000000       0.00000000       0.00000000       0.00000000
H        2.80615512       3.24026883      10.00000000        3       1.00000000       0.00000000       0.00000000       0.00000000
H        0.00000000       1.62013441      12.29121606        2       1.00000000       0.00000000       0.00000000       0.00000000
H        2.80615512       1.62013441      12.29121606        2       1.00000000       0.00000000       0.00000000       0.00000000
H        1.40307756       4.05033604      12.29121606        2       1.00000000       0.00000000       0.00000000       0.00000000
H        4.20923268       4.05033604      12.29121606        2       1.00000000       0.00000000       0.00000000       0.00000000
H        0.00000000       0.00000000      14.58243212        1       1.00000000       0.00000000       0.00000000       0.00000000
H        2.80615512       0.00000000      14.58243212        1       1.00000000       0.00000000       0.00000000       0.00000000
H        1.40307756       2.43020162      14.58243212        1       1.00000000       0.00000000       0.00000000       0.00000000
H        4.20923268       2.43020162      14.58243212        1       1.00000000       0.00000000       0.00000000       0.00000000
H        4.17131419       1.11622291       0.79059655        0       1.00000000      -0.45853060      -0.40616970      -0.22724370
H        0.07997130      -0.00499680       6.42218231        0       1.00000000      -0.18881227      -0.44270054      -0.79064189
H        1.47658405       0.71174460      17.09490441        0       1.00000000       0.46499451      -2.09278033      -1.29410382
H        0.92035887       1.31359586       1.51894028        0       1.00000000       0.04020874      -0.53657147       2.20351849
H        3.35479640       1.01701265       4.62268778        0       1.00000000      -2.07815802       1.35951500      -0.34167910
H       -0.06743113       4.34080857      17.97438927        0       1.00000000      -0.96432562       0.21297493      -0.23335534
H        5.39476430       1.15350835      22.27400758        0       1.00000000       0.01194894      -2.44433576      -0.64216772
H        4.55162608       2.48861405      17.81562402        0       1.00000000       0.13226913      -0.20113660      -2.23592855
20
Lattice="5.612310241546866 0.0 0.0 0.0 4.860403243099165 0.0 0.0 0.0 24.582432123328676" Properties=species:S:1:pos:R:3:tags:I:1:masses:R:1:momenta:R:3 KEmax=25.851991011651638 iter=899 volume=670.5618179858607 ns_energy=9.005208059246945 last_walked_iter_clone=623 ns_P=0.0 config_n_global=899 ns_KE=16.688982533706874 pbc="T T T"
H        1.40307756       0.81006721      10.00000000        3       1.00000000       0.00000000       0.00000000       0.00000000
H        4.20923268       0.81006721      10.00000000        3       1.00000000       0.00000000       0.00000000       0.00000000
H        0.00000000       3.24026883      10.00000000        3       1.00000000       0.00000000       0.00000000       0.00000000
H        2.80615512       3.24026883      10.00000000        3       1.00000000       0.00000000       0.00000000       0.00000000
H        0.00000000       1.62013441      12.29121606        2       1.00000000       0.00000000       0.00000000       0.00000000
H        2.80615512       1.62013441      12.29121606        2       1.00000000       0.00000000       0.00000000       0.00000000
H        1.40307756       4.05033604      12.29121606        2       1.00000000       0.00000000       0.00000000       0.00000000
H        4.20923268       4.05033604      12.29121606        2       1.00000000       0.00000000       0.00000000       0.00000000
H        0.00000000       0.00000000      14.58243212        1       1.00000000       0.00000000       0.00000000       0.00000000
H        2.80615512       0.00000000      14.58243212        1       1.00000000       0.00000000       0.00000000       0.00000000
H        1.40307756       2.43020162      14.58243212        1       1.00000000       0.00000000       0.00000000       0.00000000
H        4.20923268       2.43020162      14.58243212        1       1.00000000       0.00000000       0.00000000       0.00000000
H        2.82207450       3.07780724      24.75331410        0       1.00000000      -1.63714693      -0.13567605       2.81910616
H        5.20749900       4.56359701       1.23503427        0       1.00000000      -0.79820049       0.41943933       0.76711714
H        1.46137488       2.35995912      17.89203503        0       1.00000000       0.78779777      -0.24984570       0.13232352
H        1.51753758       2.67810663       5.29264762        0       1.00000000      -0.43402301       0.22164172       0.32790121
H        5.46899739       0.28781897      18.21149638        0       1.00000000       1.24859731      -0.25713637       1.29619489
H        5.12560652       4.61511968      22.52777243        0       1.00000000      -0.74853876       0.41490141       0.11726878
H        0.54428357       0.18023334       5.60341698        0       1.00000000       1.09427665      -1.40010373       0.60877522
H        0.91488811       2.72376947       7.37112368        0       1.00000000      -2.18403452      -2.78701580       0.40939410
20
Lattice="5.612310241546866 0.0 0.0 0.0 4.860403243099165 0.0 0.0 0.0 24.582432123328676" Properties=species:S:1:pos:R:3:tags:I:1:masses:R:1:momenta:R:3 KEmax=25.851991011651638 iter=999 volume=670.5618179858607 ns_energy=7.92700860787825 last_walked_iter_clone=914 ns_P=0.0 config_n_global=999 ns_KE=16.688090007160792 pbc="T T T"
H        1.40307756       0.81006721      10.00000000        3       1.00000000       0.00000000       0.00000000       0.00000000
H        4.20923268       0.81006721      10.00000000        3       1.00000000       0.00000000       0.00000000       0.00000000
H        0.00000000       3.24026883      10.00000000        3       1.00000000       0.00000000       0.00000000       0.00000000
H        2.80615512       3.24026883      10.00000000        3       1.00000000       0.00000000       0.00000000       0.00000000
H        0.00000000       1.62013441      12.29121606        2       1.00000000       0.00000000       0.00000000       0.00000000
H        2.80615512       1.62013441      12.29121606        2       1.00000000       0.00000000       0.00000000       0.00000000
H        1.40307756       4.05033604      12.29121606        2       1.00000000       0.00000000       0.00000000       0.00000000
H        4.20923268       4.05033604      12.29121606        2       1.00000000       0.00000000       0.00000000       0.00000000
H        0.00000000       0.00000000      14.58243212        1       1.00000000       0.00000000       0.00000000       0.00000000
H        2.80615512       0.00000000      14.58243212        1       1.00000000       0.00000000       0.00000000       0.00000000
H        1.40307756       2.43020162      14.58243212        1       1.00000000       0.00000000       0.00000000       0.00000000
H        4.20923268       2.43020162      14.58243212        1       1.00000000       0.00000000       0.00000000       0.00000000
H        3.59001018       2.90578143      22.45507414        0       1.00000000      -0.24728911      -0.03325220      -0.03279260
H        5.80132280       1.23580139       5.62500417        0       1.00000000       1.42378781       0.53091441       1.00271878
H        5.94184152       0.55646213      18.97163546        0       1.00000000       1.70889659      -2.75350751       1.31402461
H        2.09152039       1.82118739      24.37107898        0       1.00000000      -1.20634531       1.03291020       1.15284898
H        0.51402900       3.05619339      22.22460252        0       1.00000000       0.33759382       1.72433754       0.89893283
H        3.83570404       0.35433401      21.66876132        0       1.00000000      -0.49959092       1.37356345       1.34908300
H        2.78612686       2.06308735       2.23077013        0       1.00000000       0.77820961       1.26030225      -0.00452963
H        2.92953121       1.85707082       6.96006883        0       1.00000000       0.45274739      -1.33005128       1.37791281
20
Lattice="5.612310241546866 0.0 0.0 0.0 4.860403243099165 0.0 0.0 0.0 24.582432123328676" Properties=species:S:1:pos:R:3:tags:I:1:masses:R:1:momenta:R:3 KEmax=25.851991011651638 iter=1099 volume=670.5618179858607 ns_energy=7.0135289079351635 last_walked_iter_clone=1025 ns_P=0.0 config_n_global=1099 ns_KE=16.27440416708601 pbc="T T T"