51
Lattice="11.224620483093732 0.0 0.0 0.0 9.72080648619833 0.0 0.0 0.0 44.58243212332868" Properties=species:S:1:pos:R:3:tags:I:1:masses:R:1:momenta:R:3:forces:R:3 KEmax=65.92257707971167 iter=50063 volume=4864.494543886885 set_wall=T ns_energy=-31.155523955148055 last_walked_iter_clone=50058 energy=-31.15552396682525 stress="0.020102035436986333 -1.6810019178385277e-07 -1.376397081438967e-07 -1.6810019178385277e-07 0.02011304741086249 7.26222499866305e-08 -1.376397081438967e-07 7.26222499866305e-08 0.013141589238480482" pbc="T T F"
H        1.40307756       0.81006721      20.00000000        3       1.00000000       0.00000000       0.00000000       0.00000000       0.00000000       0.00000000       0.00000000
H        4.20923268       0.81006721      20.00000000        3       1.00000000       0.00000000       0.00000000       0.00000000       0.00000000       0.00000000       0.00000000
H        7.01538780       0.81006721      20.00000000        3       1.00000000       0.00000000       0.00000000       0.00000000       0.00000000       0.00000000       0.00000000
H        9.82154292       0.81006721      20.00000000        3       1.00000000       0.00000000       0.00000000       0.00000000       0.00000000       0.00000000       0.00000000
H        0.00000000       3.24026883      20.00000000        3       1.00000000       0.00000000       0.00000000       0.00000000       0.00000000       0.00000000       0.00000000
H        2.80615512       3.24026883      20.00000000        3       1.00000000       0.00000000       0.00000000       0.00000000       0.00000000       0.00000000       0.00000000
H        5.61231024       3.24026883      20.00000000        3       1.00000000       0.00000000       0.00000000       0.00000000       0.00000000       0.00000000       0.00000000
H        8.41846536       3.24026883      20.00000000        3       1.00000000       0.00000000       0.00000000       0.00000000       0.00000000       0.00000000       0.00000000
H        1.40307756       5.67047045      20.00000000        3       1.00000000       0.00000000       0.00000000       0.00000000       0.00000000       0.00000000       0.00000000
H        4.20923268       5.67047045      20.00000000        3       1.00000000       0.00000000       0.00000000       0.00000000       0.00000000       0.00000000       0.00000000
H        7.01538780       5.67047045      20.00000000        3       1.00000000       0.00000000       0.00000000       0.00000000       0.00000000       0.00000000       0.00000000
H        9.82154292       5.67047045      20.00000000        3       1.00000000       0.00000000       0.00000000       0.00000000       0.00000000       0.00000000       0.00000000
H        0.00000000       8.10067207      20.00000000        3       1.00000000       0.00000000       0.00000000       0.00000000       0.00000000       0.00000000       0.00000000
H        2.80615512       8.10067207      20.00000000        3       1.00000000       0.00000000       0.00000000       0.00000000       0.00000000       0.00000000       0.00000000
H        5.61231024       8.10067207      20.00000000        3       1.00000000       0.00000000       0.00000000       0.00000000       0.00000000       0.00000000       0.00000000
H        8.41846536       8.10067207      20.00000000        3       1.00000000       0.00000000       0.00000000       0.00000000       0.00000000       0.00000000       0.00000000
H        0.00000000       1.62013441      22.29121606        2       1.00000000       0.00000000       0.00000000       0.00000000       0.00000000       0.00000000       0.00000000
H        2.80615512       1.62013441      22.29121606        2       1.00000000       0.00000000       0.00000000       0.00000000       0.00000000       0.00000000       0.00000000
H        5.61231024       1.62013441      22.29121606        2       1.00000000       0.00000000       0.00000000       0.00000000       0.00000000       0.00000000       0.00000000
H        8.41846536       1.62013441      22.29121606        2       1.00000000       0.00000000       0.00000000       0.00000000       0.00000000       0.00000000       0.00000000
H        1.40307756       4.05033604      22.29121606        2       1.00000000       0.00000000       0.00000000       0.00000000       0.00000000       0.00000000       0.00000000
H        4.20923268       4.05033604      22.29121606        2       1.00000000       0.00000000       0.00000000       0.00000000       0.00000000       0.00000000       0.00000000
H        7.01538780       4.05033604      22.29121606        2       1.00000000       0.00000000       0.00000000       0.00000000       0.00000000       0.00000000       0.00000000
H        9.82154292       4.05033604      22.29121606        2       1.00000000       0.00000000       0.00000000       0.00000000       0.00000000       0.00000000       0.00000000
H        0.00000000       6.48053766      22.29121606        2       1.00000000       0.00000000       0.00000000       0.00000000       0.00000000       0.00000000       0.00000000
H        2.80615512       6.48053766      22.29121606        2       1.00000000       0.00000000       0.00000000       0.00000000       0.00000000       0.00000000       0.00000000
H        5.61231024       6.48053766      22.29121606        2       1.00000000       0.00000000       0.00000000       0.00000000       0.00000000       0.00000000       0.00000000
H        8.41846536       6.48053766      22.29121606        2       1.00000000       0.00000000       0.00000000       0.00000000       0.00000000       0.00000000       0.00000000
H        1.40307756       8.91073928      22.29121606        2       1.00000000       0.00000000       0.00000000       0.00000000       0.00000000       0.00000000       0.00000000
H        4.20923268       8.91073928      22.29121606        2       1.00000000       0.00000000       0.00000000       0.00000000       0.00000000       0.00000000       0.00000000
H        7.01538780       8.91073928      22.29121606        2       1.00000000       0.00000000       0.00000000       0.00000000       0.00000000       0.00000000       0.00000000
H        9.82154292       8.91073928      22.29121606        2       1.00000000       0.00000000       0.00000000       0.00000000       0.00000000       0.00000000       0.00000000
H        0.00000000       0.00000000      24.58243212        1       1.00000000       0.00000000       0.00000000       0.00000000       0.00000000       0.00000000       0.00000000
H        2.80615512       0.00000000      24.58243212        1       1.00000000       0.00000000       0.00000000       0.00000000       0.00000000       0.00000000       0.00000000
H        5.61231024       0.00000000      24.58243212        1       1.00000000       0.00000000       0.00000000       0.00000000       0.00000000       0.00000000       0.00000000
H        8.41846536       0.00000000      24.58243212        1       1.00000000       0.00000000       0.00000000       0.00000000       0.00000000       0.00000000       0.00000000
H        1.40307756       2.43020162      24.58243212        1       1.00000000       0.00000000       0.00000000       0.00000000       0.00000000       0.00000000       0.00000000
H        4.20923268       2.43020162      24.58243212        1       1.00000000       0.00000000       0.00000000       0.00000000       0.00000000       0.00000000       0.00000000
H        7.01538780       2.43020162      24.58243212        1       1.00000000       0.00000000       0.00000000       0.00000000       0.00000000       0.00000000       0.00000000
H        9.82154292       2.43020162      24.58243212        1       1.00000000       0.00000000       0.00000000       0.00000000       0.00000000       0.00000000       0.00000000
H        0.00000000       4.86040324      24.58243212        1       1.00000000       0.00000000       0.00000000       0.00000000       0.00000000       0.00000000       0.00000000
H        2.80615512       4.86040324      24.58243212        1       1.00000000       0.00000000       0.00000000       0.00000000       0.00000000       0.00000000       0.00000000
H        5.61231024       4.86040324      24.58243212        1       1.00000000       0.00000000       0.00000000       0.00000000       0.00000000       0.00000000       0.00000000
H        8.41846536       4.86040324      24.58243212        1       1.00000000       0.00000000       0.00000000       0.00000000       0.00000000       0.00000000       0.00000000
H        1.40307756       7.29060486      24.58243212        1       1.00000000       0.00000000       0.00000000       0.00000000       0.00000000       0.00000000       0.00000000
H        4.20923268       7.29060486      24.58243212        1       1.00000000       0.00000000       0.00000000       0.00000000       0.00000000       0.00000000       0.00000000
H        7.01538780       7.29060486      24.58243212        1       1.00000000       0.00000000       0.00000000       0.00000000       0.00000000       0.00000000       0.00000000
H        9.82154292       7.29060486      24.58243212        1       1.00000000       0.00000000       0.00000000       0.00000000       0.00000000       0.00000000       0.00000000
H        9.82145035       5.67068763      26.81071026        0       1.00000000      -0.00001953      -0.00001527      -0.00003899       0.00009586       0.00005725      -0.00005285
H        8.41851722       3.23990009      26.81074006        0       1.00000000       0.00004648       0.00004233       0.00004262      -0.00003181      -0.00007025       0.00002260
H        7.01556557       5.67057082      26.81069392        0       1.00000000       0.00000109       0.00003247      -0.00003652      -0.00001820      -0.00001121      -0.00001640
51
Lattice="11.224620483093732 0.0 0.0 0.0 9.72080648619833 0.0 0.0 0.0 44.58243212332868" Properties=species:S:1:pos:R:3:tags:I:1:masses:R:1:momenta:R:3:forces:R:3 KEmax=65.92257707971167 iter=50063 volume=4864.494543886885 set_wall=T ns_energy=-31.15552395476269 last_walked_iter_clone=49952 energy=-31.15552396682525 stress="0.020102035436986333 -1.6810019178385277e-07 -1.376397081438967e-07 -1.6810019178385277e-07 0.02011304741086249 7.26222499866305e-08 -1.376397081438967e-07 7.26222499866305e-08 0.013141589238480482" pbc="T T F"
H        1.40307756       0.81006721      20.00000000        3       1.00000000       0.00000000       0.00000000       0.00000000       0.00000000       0.00000000       0.00000000
H        4.20923268       0.81006721      20.00000000        3       1.00000000       0.00000000       0.00000000       0.00000000       0.00000000       0.00000000       0.00000000
H        7.01538780       0.81006721      20.00000000        3       1.00000000       0.00000000       0.00000000       0.00000000       0.00000000       0.00000000       0.00000000
H        9.82154292       0.81006721      20.00000000        3       1.00000000       0.00000000       0.00000000       0.00000000       0.00000000       0.00000000       0.00000000
H        0.00000000       3.24026883      20.00000000        3       1.00000000       0.00000000       0.00000000       0.00000000       0.00000000       0.00000000       0.00000000
H        2.80615512       3.24026883      20.00000000        3       1.00000000       0.00000000       0.00000000       0.00000000       0.00000000       0.00000000       0.00000000
H        5.61231024       3.24026883      20.00000000        3       1.00000000       0.00000000       0.00000000       0.00000000       0.00000000       0.00000000       0.00000000
H        8.41846536       3.24026883      20.00000000        3       1.00000000       0.00000000       0.00000000       0.00000000       0.00000000       0.00000000       0.00000000
H        1.40307756       5.67047045      20.00000000        3       1.00000000       0.00000000       0.00000000       0.00000000       0.00000000       0.00000000       0.00000000
H        4.20923268       5.67047045      20.00000000        3       1.00000000       0.00000000       0.00000000       0.00000000       0.00000000       0.00000000       0.00000000
H        7.01538780       5.67047045      20.00000000        3       1.00000000       0.00000000       0.00000000       0.00000000       0.00000000       0.00000000       0.00000000
H        9.82154292       5.67047045      20.00000000        3       1.00000000       0.00000000       0.00000000       0.00000000       0.00000000       0.00000000       0.00000000
H        0.00000000       8.10067207      20.00000000        3       1.00000000       0.00000000       0.00000000       0.00000000       0.00000000       0.00000000       0.00000000
H        2.80615512       8.10067207      20.00000000        3       1.00000000       0.00000000       0.00000000       0.00000000       0.00000000       0.00000000       0.00000000
H        5.61231024       8.10067207      20.00000000        3       1.00000000       0.00000000       0.00000000       0.00000000       0.00000000       0.00000000       0.00000000
H        8.41846536       8.10067207      20.00000000        3       1.00000000       0.00000000       0.00000000       0.00000000       0.00000000       0.00000000       0.00000000
H        0.00000000       1.62013441      22.29121606        2       1.00000000       0.00000000       0.00000000       0.00000000       0.00000000       0.00000000       0.00000000
H        2.80615512       1.62013441      22.29121606        2       1.00000000       0.00000000       0.00000000       0.00000000       0.00000000       0.00000000       0.00000000
H        5.61231024       1.62013441      22.29121606        2       1.00000000       0.00000000       0.00000000       0.00000000       0.00000000       0.00000000       0.00000000
H        8.41846536       1.62013441      22.29121606        2       1.00000000       0.00000000       0.00000000       0.00000000       0.00000000       0.00000000       0.00000000
H        1.40307756       4.05033604      22.29121606        2       1.00000000       0.00000000       0.00000000       0.00000000       0.00000000       0.00000000       0.00000000
H        4.20923268       4.05033604      22.29121606        2       1.00000000       0.00000000       0.00000000       0.00000000       0.00000000       0.00000000       0.00000000
H        7.01538780       4.05033604      22.29121606        2       1.00000000       0.00000000       0.00000000       0.00000000       0.00000000       0.00000000       0.00000000
H        9.82154292       4.05033604      22.29121606        2       1.00000000       0.00000000       0.00000000       0.00000000       0.00000000       0.00000000       0.00000000
H        0.00000000       6.48053766      22.29121606        2       1.00000000       0.00000000       0.00000000       0.00000000       0.00000000       0.00000000       0.00000000
H        2.80615512       6.48053766      22.29121606        2       1.00000000       0.00000000       0.00000000       0.00000000       0.00000000       0.00000000       0.00000000
H        5.61231024       6.48053766      22.29121606        2       1.00000000       0.00000000       0.00000000       0.00000000       0.00000000       0.00000000       0.00000000
H        8.41846536       6.48053766      22.29121606        2       1.00000000       0.00000000       0.00000000       0.00000000       0.00000000       0.00000000       0.00000000
H        1.40307756       8.91073928      22.29121606        2       1.00000000       0.00000000       0.00000000       0.00000000       0.00000000       0.00000000       0.00000000
H        4.20923268       8.91073928      22.29121606        2       1.00000000       0.00000000       0.00000000       0.00000000       0.00000000       0.00000000       0.00000000
H        7.01538780       8.91073928      22.29121606        2       1.00000000       0.00000000       0.00000000       0.00000000       0.00000000       0.00000000       0.00000000
H        9.82154292       8.91073928      22.29121606        2       1.00000000       0.00000000       0.00000000       0.00000000       0.00000000       0.00000000       0.00000000
H        0.00000000       0.00000000      24.58243212        1       1.00000000       0.00000000       0.00000000       0.00000000       0.00000000       0.00000000       0.00000000
H        2.80615512       0.00000000      24.58243212        1       1.00000000       0.00000000       0.00000000       0.00000000       0.00000000       0.00000000       0.00000000
H        5.61231024       0.00000000      24.58243212        1       1.00000000       0.00000000       0.00000000       0.00000000       0.00000000       0.00000000       0.00000000
H        8.41846536       0.00000000      24.58243212        1       1.00000000       0.00000000       0.00000000       0.00000000       0.00000000       0.00000000       0.00000000
H        1.40307756       2.43020162      24.58243212        1       1.00000000       0.00000000       0.00000000       0.00000000       0.00000000       0.00000000       0.00000000
H        4.20923268       2.43020162      24.58243212        1       1.00000000       0.00000000       0.00000000       0.00000000       0.00000000       0.00000000       0.00000000
H        7.01538780       2.43020162      24.58243212        1       1.00000000       0.00000000       0.00000000       0.00000000       0.00000000       0.00000000       0.00000000
H        9.82154292       2.43020162      24.58243212        1       1.00000000       0.00000000       0.00000000       0.00000000       0.00000000       0.00000000       0.00000000
H        0.00000000       4.86040324      24.58243212        1       1.00000000       0.00000000       0.00000000       0.00000000       0.00000000       0.00000000       0.00000000
H        2.80615512       4.86040324      24.58243212        1       1.00000000       0.00000000       0.00000000       0.00000000       0.00000000       0.00000000       0.00000000
H        5.61231024       4.86040324      24.58243212        1       1.00000000       0.00000000       0.00000000       0.00000000       0.00000000       0.00000000       0.00000000
H        8.41846536       4.86040324      24.58243212        1       1.00000000       0.00000000       0.00000000       0.00000000       0.00000000       0.00000000       0.00000000
H        1.40307756       7.29060486      24.58243212        1       1.00000000       0.00000000       0.00000000       0.00000000       0.00000000       0.00000000       0.00000000
H        4.20923268       7.29060486      24.58243212        1       1.00000000       0.00000000       0.00000000       0.00000000       0.00000000       0.00000000       0.00000000
H        7.01538780       7.29060486      24.58243212        1       1.00000000       0.00000000       0.00000000       0.00000000       0.00000000       0.00000000       0.00000000
H        9.82154292       7.29060486      24.58243212        1       1.00000000       0.00000000       0.00000000       0.00000000       0.00000000       0.00000000       0.00000000
H        9.82137949       5.67068346      26.81068061        0       1.00000000       0.00004081       0.00002577       0.00005888       0.00009586       0.00005725      -0.00005285
H        8.41845875       3.23984881      26.81068645        0       1.00000000       0.00006582      -0.00007671      -0.00001606      -0.00003181      -0.00007025       0.00002260
H        7.01550922       5.67068375      26.81065737        0       1.00000000      -0.00002256       0.00005138       0.00002274      -0.00001820      -0.00001121      -0.00001640
51
Lattice="11.224620483093732 0.0 0.0 0.0 9.72080648619833 0.0 0.0 0.0 44.58243212332868" Properties=species:S:1:pos:R:3:tags:I:1:masses:R:1:momenta:R:3:forces:R:3 KEmax=65.92257707971167 iter=50063 volume=4864.494543886885 set_wall=T ns_energy=-31.155523954795097 last_walked_iter_clone=50025 energy=-31.15552396682525 stress="0.020102035436986333 -1.6810019178385277e-07 -1.376397081438967e-07 -1.6810019178385277e-07 0.02011304741086249 7.26222499866305e-08 -1.376397081438967e-07 7.26222499866305e-08 0.013141589238480482" pbc="T T F"
H        1.40307756       0.81006721      20.00000000        3       1.00000000       0.00000000       0.00000000       0.00000000       0.00000000       0.00000000       0.00000000
H        4.20923268       0.81006721      20.00000000        3       1.00000000       0.00000000       0.00000000       0.00000000       0.00000000       0.00000000       0.00000000
H        7.01538780       0.81006721      20.00000000        3       1.00000000       0.00000000       0.00000000       0.00000000       0.00000000       0.00000000       0.00000000
H        9.82154292       0.81006721      20.00000000        3       1.00000000       0.00000000       0.00000000       0.00000000       0.00000000       0.00000000       0.00000000
H        0.00000000       3.24026883      20.00000000        3       1.00000000       0.00000000       0.00000000       0.00000000       0.00000000       0.00000000       0.00000000
H        2.80615512       3.24026883      20.00000000        3       1.00000000       0.00000000       0.00000000       0.00000000       0.00000000       0.00000000       0.00000000
H        5.61231024       3.24026883      20.00000000        3       1.00000000       0.00000000       0.00000000       0.00000000       0.00000000       0.00000000       0.00000000
H        8.41846536       3.24026883      20.00000000        3       1.00000000       0.00000000       0.00000000       0.00000000       0.00000000       0.00000000       0.00000000
H        1.40307756       5.67047045      20.00000000        3       1.00000000       0.00000000       0.00000000       0.00000000       0.00000000       0.00000000       0.00000000
H        4.20923268       5.67047045      20.00000000        3       1.00000000       0.00000000       0.00000000       0.00000000       0.00000000       0.00000000       0.00000000
H        7.01538780       5.67047045      20.00000000        3       1.00000000       0.00000000       0.00000000       0.00000000       0.00000000       0.00000000       0.00000000
H        9.82154292       5.67047045      20.00000000        3       1.00000000       0.00000000       0.00000000       0.00000000       0.00000000       0.00000000       0.00000000
H        0.00000000       8.10067207      20.00000000        3       1.00000000       0.00000000       0.00000000       0.00000000       0.00000000       0.00000000       0.00000000
H        2.80615512       8.10067207      20.00000000        3       1.00000000       0.00000000       0.00000000       0.00000000       0.00000000       0.00000000       0.00000000
H        5.61231024       8.10067207      20.00000000        3       1.00000000       0.00000000       0.00000000       0.00000000       0.00000000       0.00000000       0.00000000
H        8.41846536       8.10067207      20.00000000        3       1.00000000       0.00000000       0.00000000       0.00000000       0.00000000       0.00000000       0.00000000
H        0.00000000       1.62013441      22.29121606        2       1.00000000       0.00000000       0.00000000       0.00000000       0.00000000       0.00000000       0.00000000
H        2.80615512       1.62013441      22.29121606        2       1.00000000       0.00000000       0.00000000       0.00000000       0.00000000       0.00000000       0.00000000
H        5.61231024       1.62013441      22.29121606        2       1.00000000       0.00000000       0.00000000       0.00000000       0.00000000       0.00000000       0.00000000
H        8.41846536       1.62013441      22.29121606        2       1.00000000       0.00000000       0.00000000       0.00000000       0.00000000       0.00000000       0.00000000
H        1.40307756       4.05033604      22.29121606        2       1.00000000       0.00000000       0.00000000       0.00000000       0.00000000       0.00000000       0.00000000
H        4.20923268       4.05033604      22.29121606        2       1.00000000       0.00000000       0.00000000       0.00000000       0.00000000       0.00000000       0.00000000
H        7.01538780       4.05033604      22.29121606        2       1.00000000       0.00000000       0.00000000       0.00000000       0.00000000       0.00000000       0.00000000
H        9.82154292       4.05033604      22.29121606        2       1.00000000       0.00000000       0.00000000       0.00000000       0.00000000       0.00000000       0.00000000
H        0.00000000       6.48053766      22.29121606        2       1.00000000       0.00000000       0.00000000       0.00000000       0.00000000       0.00000000       0.00000000
H        2.80615512       6.48053766      22.29121606        2       1.00000000       0.00000000       0.00000000       0.00000000       0.00000000       0.00000000       0.00000000
H        5.61231024       6.48053766      22.29121606        2       1.00000000       0.00000000       0.00000000       0.00000000       0.00000000       0.00000000       0.00000000
H        8.41846536       6.48053766      22.29121606        2       1.00000000       0.00000000       0.00000000       0.00000000       0.00000000       0.00000000       0.00000000
H        1.40307756       8.91073928      22.29121606        2       1.00000000       0.00000000       0.00000000       0.00000000       0.00000000       0.00000000       0.00000000
H        4.20923268       8.91073928      22.29121606        2       1.00000000       0.00000000       0.00000000       0.00000000       0.00000000       0.00000000       0.00000000
H        7.01538780       8.91073928      22.29121606        2       1.00000000       0.00000000       0.00000000       0.00000000       0.00000000       0.00000000       0.00000000
H        9.82154292       8.91073928      22.29121606        2       1.00000000       0.00000000       0.00000000       0.00000000       0.00000000       0.00000000       0.00000000
H        0.00000000       0.00000000      24.58243212        1       1.00000000       0.00000000       0.00000000       0.00000000       0.00000000       0.00000000       0.00000000
H        2.80615512       0.00000000      24.58243212        1       1.00000000       0.00000000       0.00000000       0.00000000       0.00000000       0.00000000       0.00000000
H        5.61231024       0.00000000      24.58243212        1       1.00000000       0.00000000       0.00000000       0.00000000       0.00000000       0.00000000       0.00000000
H        8.41846536       0.00000000      24.58243212        1       1.00000000       0.00000000       0.00000000       0.00000000       0.00000000       0.00000000       0.00000000
H        1.40307756       2.43020162      24.58243212        1       1.00000000       0.00000000       0.00000000       0.00000000       0.00000000       0.00000000       0.00000000
H        4.20923268       2.43020162      24.58243212        1       1.00000000       0.00000000       0.00000000       0.00000000       0.00000000       0.00000000       0.00000000
H        7.01538780       2.43020162      24.58243212        1       1.00000000       0.00000000       0.00000000       0.00000000       0.00000000       0.00000000       0.00000000
H        9.82154292       2.43020162      24.58243212        1       1.00000000       0.00000000       0.00000000       0.00000000       0.00000000       0.00000000       0.00000000
H        0.00000000       4.86040324      24.58243212        1       1.00000000       0.00000000       0.00000000       0.00000000       0.00000000       0.00000000       0.00000000
H        2.80615512       4.86040324      24.58243212        1       1.00000000       0.00000000       0.00000000       0.00000000       0.00000000       0.00000000       0.00000000
H        5.61231024       4.86040324      24.58243212        1       1.00000000       0.00000000       0.00000000       0.00000000       0.00000000       0.00000000       0.00000000
H        8.41846536       4.86040324      24.58243212        1       1.00000000       0.00000000       0.00000000       0.00000000       0.00000000       0.00000000       0.00000000
H        1.40307756       7.29060486      24.58243212        1       1.00000000       0.00000000       0.00000000       0.00000000       0.00000000       0.00000000       0.00000000
H        4.20923268       7.29060486      24.58243212        1       1.00000000       0.00000000       0.00000000       0.00000000       0.00000000       0.00000000       0.00000000
H        7.01538780       7.29060486      24.58243212        1       1.00000000       0.00000000       0.00000000       0.00000000       0.00000000       0.00000000       0.00000000
H        9.82154292       7.29060486      24.58243212        1       1.00000000       0.00000000       0.00000000       0.00000000       0.00000000       0.00000000       0.00000000
H        9.82144018       5.67067256      26.81071160        0       1.00000000       0.00001375       0.00007606       0.00001575       0.00009586       0.00005725      -0.00005285
H        8.41843882       3.23990691      26.81075097        0       1.00000000      -0.00006625      -0.00002033      -0.00004730      -0.00003181      -0.00007025       0.00002260
H        7.01558497       5.67070984      26.81074404        0       1.00000000       0.00002174      -0.00002100      -0.00002803      -0.00001820      -0.00001121      -0.00001640
51