23
Lattice="5.612310241546866 0.0 0.0 0.0 4.860403243099165 0.0 0.0 0.0 44.58243212332868" Properties=species:S:1:pos:R:3:tags:I:1:masses:R:1:momenta:R:3:forces:R:3 KEmax=29.729789663399384 iter=138811 volume=1216.1236359717223 set_wall=T ns_energy=-15.673667480286737 last_walked_iter_clone=138782 energy=-15.673713244118828 stress="0.02323078368305775 2.9790201740390626e-05 2.8392389050628805e-05 2.9790201740390626e-05 0.02331803164080804 2.212920365332078e-05 2.8392389050628805e-05 2.212920365332078e-05 0.00933629360647851" pbc="T T F"
H        1.40307756       0.81006721      20.00000000        3       1.00000000       0.00000000       0.00000000       0.00000000       0.00000000       0.00000000       0.00000000
H        4.20923268       0.81006721      20.00000000        3       1.00000000       0.00000000       0.00000000       0.00000000       0.00000000       0.00000000       0.00000000
H        0.00000000       3.24026883      20.00000000        3       1.00000000       0.00000000       0.00000000       0.00000000       0.00000000       0.00000000       0.00000000
H        2.80615512       3.24026883      20.00000000        3       1.00000000       0.00000000       0.00000000       0.00000000       0.00000000       0.00000000       0.00000000
H        0.00000000       1.62013441      22.29121606        2       1.00000000       0.00000000       0.00000000       0.00000000       0.00000000       0.00000000       0.00000000
H        2.80615512       1.62013441      22.29121606        2       1.00000000       0.00000000       0.00000000       0.00000000       0.00000000       0.00000000       0.00000000
H        1.40307756       4.05033604      22.29121606        2       1.00000000       0.00000000       0.00000000       0.00000000       0.00000000       0.00000000       0.00000000
H        4.20923268       4.05033604      22.29121606        2       1.00000000       0.00000000       0.00000000       0.00000000       0.00000000       0.00000000       0.00000000
H        0.00000000       0.00000000      24.58243212        1       1.00000000       0.00000000       0.00000000       0.00000000       0.00000000       0.00000000       0.00000000
H        2.80615512       0.00000000      24.58243212        1       1.00000000       0.00000000       0.00000000       0.00000000       0.00000000       0.00000000       0.00000000
H        1.40307756       2.43020162      24.58243212        1       1.00000000       0.00000000       0.00000000       0.00000000       0.00000000       0.00000000       0.00000000
H        4.20923268       2.43020162      24.58243212        1       1.00000000       0.00000000       0.00000000       0.00000000       0.00000000       0.00000000       0.00000000
H       -0.00031231       3.23996139      26.78509633        0       1.00000000      -0.00201572      -0.00148710       0.00050638       0.00055046      -0.00095420      -0.00104532
H        5.60923764       4.84492720      29.00275900        0       1.00000000       0.00110086      -0.00037886       0.00380551       0.00814173      -0.00388107       0.00452380
H        2.80515972       3.23844452      26.79054089        0       1.00000000       0.00085183       0.00100275       0.00418508       0.00416804      -0.00367347       0.00041267
H        1.39956325       0.81286535      26.78834940        0       1.00000000       0.00218783       0.00208971       0.00007348      -0.00632776       0.00221731      -0.00625000
H        2.80318877       0.01159896      28.98492468        0       1.00000000      -0.00062231      -0.00209290      -0.00026746      -0.00110184      -0.00164827       0.00421905
H        1.39716997       0.81354082      31.22094594        0       1.00000000       0.00002106      -0.00061251      -0.00016191      -0.00157986       0.00026069      -0.00175197
H        4.20855292       0.81257827      31.22378575        0       1.00000000      -0.00213710      -0.00181462      -0.00235020       0.00223834      -0.00373611      -0.00141063
H        4.21531507       2.43499796      29.00380726        0       1.00000000       0.00330131      -0.00004395      -0.00031961      -0.00052699       0.00588317      -0.00470150
H        4.21103774       0.81199178      26.78845582        0       1.00000000      -0.00060325       0.00104355      -0.00265431      -0.00271651       0.00419809      -0.00481912
H        2.80661862       3.24670119      31.21771065        0       1.00000000      -0.00045963       0.00110963      -0.00107923      -0.00245040       0.00264011       0.00394609
H        1.39173967       2.43587803      29.00427593        0       1.00000000       0.00240054       0.00112363       0.00101826      -0.00362966      -0.00153135       0.00304271
23
Lattice="5.612310241546866 0.0 0.0 0.0 4.860403243099165 0.0 0.0 0.0 44.58243212332868" Properties=species:S:1:pos:R:3:tags:I:1:masses:R:1:momenta:R:3:forces:R:3 KEmax=29.729789663399384 iter=138811 volume=1216.1236359717223 set_wall=T ns_energy=-15.673659616398998 last_walked_iter_clone=138525 energy=-15.673713244118828 stress="0.02323078368305775 2.9790201740390626e-05 2.8392389050628805e-05 2.9790201740390626e-05 0.02331803164080804 2.212920365332078e-05 2.8392389050628805e-05 2.212920365332078e-05 0.00933629360647851" pbc="T T F"
H        1.40307756       0.81006721      20.00000000        3       1.00000000       0.00000000       0.00000000       0.00000000       0.00000000       0.00000000       0.00000000
H        4.20923268       0.81006721      20.00000000        3       1.00000000       0.00000000       0.00000000       0.00000000       0.00000000       0.00000000       0.00000000
H        0.00000000       3.24026883      20.00000000        3       1.00000000       0.00000000       0.00000000       0.00000000       0.00000000       0.00000000       0.00000000
H        2.80615512       3.24026883      20.00000000        3       1.00000000       0.00000000       0.00000000       0.00000000       0.00000000       0.00000000       0.00000000
H        0.00000000       1.62013441      22.29121606        2       1.00000000       0.00000000       0.00000000       0.00000000       0.00000000       0.00000000       0.00000000
H        2.80615512       1.62013441      22.29121606        2       1.00000000       0.00000000       0.00000000       0.00000000       0.00000000       0.00000000       0.00000000
H        1.40307756       4.05033604      22.29121606        2       1.00000000       0.00000000       0.00000000       0.00000000       0.00000000       0.00000000       0.00000000
H        4.20923268       4.05033604      22.29121606        2       1.00000000       0.00000000       0.00000000       0.00000000       0.00000000       0.00000000       0.00000000
H        0.00000000       0.00000000      24.58243212        1       1.00000000       0.00000000       0.00000000       0.00000000       0.00000000       0.00000000       0.00000000
H        2.80615512       0.00000000      24.58243212        1       1.00000000       0.00000000       0.00000000       0.00000000       0.00000000       0.00000000       0.00000000
H        1.40307756       2.43020162      24.58243212        1       1.00000000       0.00000000       0.00000000       0.00000000       0.00000000       0.00000000       0.00000000
H        4.20923268       2.43020162      24.58243212        1       1.00000000       0.00000000       0.00000000       0.00000000       0.00000000       0.00000000       0.00000000
H        5.61340744       3.23731203      26.78789815        0       1.00000000      -0.00329489       0.00092170       0.00246371       0.00055046      -0.00095420      -0.00104532
H        5.61315687       4.84220690      29.00382809        0       1.00000000      -0.00154825      -0.00181098      -0.00086209       0.00814173      -0.00388107       0.00452380
H        2.80817662       3.23631819      26.79174860        0       1.00000000      -0.00032131      -0.00069705       0.00066937       0.00416804      -0.00367347       0.00041267
H        1.40020823       0.80917905      26.78926004        0       1.00000000       0.00382489      -0.00112880       0.00128753      -0.00632776       0.00221731      -0.00625000
H        2.80605448       0.00559351      28.98830719        0       1.00000000      -0.00096447      -0.00096709      -0.00060314      -0.00110184      -0.00164827       0.00421905
H        1.39957375       0.80749556      31.22329993        0       1.00000000      -0.00226740      -0.00287845       0.00099995      -0.00157986       0.00026069      -0.00175197
H        4.20980190       0.80430966      31.22523144        0       1.00000000       0.00199534       0.00173409      -0.00202719       0.00223834      -0.00373611      -0.00141063
H        4.21900401       2.43208778      29.00688194        0       1.00000000       0.00175845      -0.00091846      -0.00068397      -0.00052699       0.00588317      -0.00470150
H        4.21078665       0.81017962      26.79085342        0       1.00000000       0.00090886      -0.00109710       0.00246358      -0.00271651       0.00419809      -0.00481912
H        2.80389173       3.24049414      31.22241806        0       1.00000000      -0.00183119      -0.00029583      -0.00001523      -0.00245040       0.00264011       0.00394609
H        1.39602731       2.43294150      29.00738139        0       1.00000000       0.00170730       0.00088194      -0.00102187      -0.00362966      -0.00153135       0.00304271
23
Lattice="5.612310241546866 0.0 0.0 0.0 4.860403243099165 0.0 0.0 0.0 44.58243212332868" Properties=species:S:1:pos:R:3:tags:I:1:masses:R:1:momenta:R:3:forces:R:3 KEmax=29.729789663399384 iter=138811 volume=1216.1236359717223 set_wall=T ns_energy=-15.673660951096268 last_walked_iter_clone=138492 energy=-15.673713244118828 stress="0.02323078368305775 2.9790201740390626e-05 2.8392389050628805e-05 2.9790201740390626e-05 0.02331803164080804 2.212920365332078e-05 2.8392389050628805e-05 2.212920365332078e-05 0.00933629360647851" pbc="T T F"
H        1.40307756       0.81006721      20.00000000        3       1.00000000       0.00000000       0.00000000       0.00000000       0.00000000       0.00000000       0.00000000
H        4.20923268       0.81006721      20.00000000        3       1.00000000       0.00000000       0.00000000       0.00000000       0.00000000       0.00000000       0.00000000
H        0.00000000       3.24026883      20.00000000        3       1.00000000       0.00000000       0.00000000       0.00000000       0.00000000       0.00000000       0.00000000
H        2.80615512       3.24026883      20.00000000        3       1.00000000       0.00000000       0.00000000       0.00000000       0.00000000       0.00000000       0.00000000
H        0.00000000       1.62013441      22.29121606        2       1.00000000       0.00000000       0.00000000       0.00000000       0.00000000       0.00000000       0.00000000
H        2.80615512       1.62013441      22.29121606        2       1.00000000       0.00000000       0.00000000       0.00000000       0.00000000       0.00000000       0.00000000
H        1.40307756       4.05033604      22.29121606        2       1.00000000       0.00000000       0.00000000       0.00000000       0.00000000       0.00000000       0.00000000
H        4.20923268       4.05033604      22.29121606        2       1.00000000       0.00000000       0.00000000       0.00000000       0.00000000       0.00000000       0.00000000
H        0.00000000       0.00000000      24.58243212        1       1.00000000       0.00000000       0.00000000       0.00000000       0.00000000       0.00000000       0.00000000
H        2.80615512       0.00000000      24.58243212        1       1.00000000       0.00000000       0.00000000       0.00000000       0.00000000       0.00000000       0.00000000
H        1.40307756       2.43020162      24.58243212        1       1.00000000       0.00000000       0.00000000       0.00000000       0.00000000       0.00000000       0.00000000
H        4.20923268       2.43020162      24.58243212        1       1.00000000       0.00000000       0.00000000       0.00000000       0.00000000       0.00000000       0.00000000
H       -0.00113323       3.24075559      26.78600419        0       1.00000000      -0.00177212      -0.00010250       0.00337359       0.00055046      -0.00095420      -0.00104532
H        0.00071399       4.84180909      29.00419943        0       1.00000000       0.00130181       0.00174467      -0.00030313       0.00814173      -0.00388107       0.00452380
H        2.80507049       3.23674772      26.79350035        0       1.00000000      -0.00106897      -0.00038239       0.00180729       0.00416804      -0.00367347       0.00041267
H        1.40074180       0.81032878      26.78985629        0       1.00000000      -0.00234345       0.00089187       0.00044601      -0.00632776       0.00221731      -0.00625000
H        2.80612861       0.00588278      28.98667606        0       1.00000000       0.00012875      -0.00073848      -0.00307050      -0.00110184      -0.00164827       0.00421905
H        1.40197781       0.80943545      31.22352859        0       1.00000000      -0.00197742      -0.00168161       0.00027865      -0.00157986       0.00026069      -0.00175197
H        4.21118002       0.80782412      31.22170838        0       1.00000000      -0.00084410      -0.00278494      -0.00246952       0.00223834      -0.00373611      -0.00141063
H        4.21678454       2.43294300      29.00484939        0       1.00000000      -0.00155695      -0.00287530       0.00166535      -0.00052699       0.00588317      -0.00470150
H        4.21286272       0.81160399      26.78977565        0       1.00000000      -0.00055281       0.00197783      -0.00107265      -0.00271651       0.00419809      -0.00481912
H        2.80750387       3.24162199      31.21815848        0       1.00000000      -0.00220043       0.00097381       0.00010078      -0.00245040       0.00264011       0.00394609
H        1.39399238       2.43018094      29.00503060        0       1.00000000      -0.00003606      -0.00042595       0.00272160      -0.00362966      -0.00153135       0.00304271
23
Lattice="5.612310241546866 0.0 0.0 0.0 4.860403243099165 0.0 0.0 0.0 44.58243212332868" Properties=species:S:1:pos:R:3:tags:I:1:masses:R:1:momenta:R:3:forces:R:3 KEmax=29.729789663399384 iter=138811 volume=1216.1236359717223 set_wall=T ns_energy=-15.67366050329799 last_walked_iter_clone=138556 energy=-15.673713244118828 stress="0.02323078368305775 2.9790201740390626e-05 2.8392389050628805e-05 2.9790201740390626e-05 0.02331803164080804 2.212920365332078e-05 2.8392389050628805e-05 2.212920365332078e-05 0.00933629360647851" pbc="T T F"
H        1.40307756       0.81006721      20.00000000        3       1.00000000       0.00000000       0.00000000       0.00000000       0.00000000       0.00000000       0.00000000
H        4.20923268       0.81006721      20.00000000        3       1.00000000       0.00000000       0.00000000       0.00000000       0.00000000       0.00000000       0.00000000
H        0.00000000       3.24026883      20.00000000        3       1.00000000       0.00000000       0.00000000       0.00000000       0.00000000       0.00000000       0.00000000
H        2.80615512       3.24026883      20.00000000        3       1.00000000       0.00000000       0.00000000       0.00000000       0.00000000       0.00000000       0.00000000
H        0.00000000       1.62013441      22.29121606        2       1.00000000       0.00000000       0.00000000       0.00000000       0.00000000       0.00000000       0.00000000
H        2.80615512       1.62013441      22.29121606        2       1.00000000       0.00000000       0.00000000       0.00000000       0.00000000       0.00000000       0.00000000
H        1.40307756       4.05033604      22.29121606        2       1.00000000       0.00000000       0.00000000       0.00000000       0.00000000       0.00000000       0.00000000
H        4.20923268       4.05033604      22.29121606        2       1.00000000       0.00000000       0.00000000       0.00000000       0.00000000       0.00000000       0.00000000
H        0.00000000       0.00000000      24.58243212        1       1.00000000       0.00000000       0.00000000       0.00000000       0.00000000       0.00000000       0.00000000
H        2.80615512       0.00000000      24.58243212        1       1.00000000       0.00000000       0.00000000       0.00000000       0.00000000       0.00000000       0.00000000
H        1.40307756       2.43020162      24.58243212        1       1.00000000       0.00000000       0.00000000       0.00000000       0.00000000       0.00000000       0.00000000
H        4.20923268       2.43020162      24.58243212        1       1.00000000       0.00000000       0.00000000       0.00000000       0.00000000       0.00000000       0.00000000
H        5.61430475       3.23936690      26.78548050        0       1.00000000       0.00012125       0.00292190      -0.00055498       0.00055046      -0.00095420      -0.00104532
H       -0.00165124       4.84114994      29.00368084        0       1.00000000       0.00187603       0.00183949       0.00201972       0.00814173      -0.00388107       0.00452380
H        2.80706147       3.23634742      26.79148332        0       1.00000000      -0.00040240      -0.00153970      -0.00107421       0.00416804      -0.00367347       0.00041267
H        1.40027043       0.81195651      26.79006661        0       1.00000000       0.00072839       0.00119174      -0.00469465      -0.00632776       0.00221731      -0.00625000
H        2.80537617       0.00868520      28.98460372        0       1.00000000      -0.00028080      -0.00126083       0.00163444      -0.00110184      -0.00164827       0.00421905
H        1.39948155       0.80827120      31.22210890        0       1.00000000       0.00125620       0.00316018      -0.00134599      -0.00157986       0.00026069      -0.00175197
H        4.20956225       0.80667870      31.22184543        0       1.00000000      -0.00042349      -0.00018039      -0.00213368       0.00223834      -0.00373611      -0.00141063
H        4.21731962       2.43405251      29.00879972        0       1.00000000      -0.00258187      -0.00019762       0.00063686      -0.00052699       0.00588317      -0.00470150
H        4.21314598       0.81091358      26.78921585        0       1.00000000      -0.00148296       0.00120980       0.00237415      -0.00271651       0.00419809      -0.00481912
H        2.80408549       3.24300899      31.22274407        0       1.00000000      -0.00136154       0.00018548      -0.00263545      -0.00245040       0.00264011       0.00394609
H        1.39365039       2.43320530      29.00688271        0       1.00000000      -0.00053779      -0.00131042      -0.00266530      -0.00362966      -0.00153135       0.00304271
23
Lattice="5.612310241546866 0.0 0.0 0.0 4.860403243099165 0.0 0.0 0.0 44.58243212332868" Properties=species:S:1:pos:R:3:tags:I:1:masses:R:1:momenta:R:3:forces:R:3 KEmax=29.729789663399384 iter=138811 volume=1216.1236359717223 set_wall=T ns_energy=-15.673659562017766 last_walked_iter_clone=138405 energy=-15.673713244118828 stress="0.02323078368305775 2.9790201740390626e-05 2.8392389050628805e-05 2.9790201740390626e-05 0.02331803164080804 2.212920365332078e-05 2.8392389050628805e-05 2.212920365332078e-05 0.00933629360647851" pbc="T T F"
H        1.40307756       0.81006721      20.00000000        3       1.00000000       0.00000000       0.00000000       0.00000000       0.00000000       0.00000000       0.00000000
H        4.20923268       0.81006721      20.00000000        3       1.00000000       0.00000000       0.00000000       0.00000000       0.00000000       0.00000000       0.00000000
H        0.00000000       3.24026883      20.00000000        3       1.00000000       0.00000000       0.00000000       0.00000000       0.00000000       0.00000000       0.00000000
H        2.80615512       3.24026883      20.00000000        3       1.00000000       0.00000000       0.00000000       0.00000000       0.00000000       0.00000000       0.00000000
H        0.00000000       1.62013441      22.29121606        2       1.00000000       0.00000000       0.00000000       0.00000000       0.00000000       0.00000000       0.00000000
H        2.80615512       1.62013441      22.29121606        2       1.00000000       0.00000000       0.00000000       0.00000000       0.00000000       0.00000000       0.00000000
H        1.40307756       4.05033604      22.29121606        2       1.00000000       0.00000000       0.00000000       0.00000000       0.00000000       0.00000000       0.00000000
H        4.20923268       4.05033604      22.29121606        2       1.00000000       0.00000000       0.00000000       0.00000000       0.00000000       0.00000000       0.00000000
H        0.00000000       0.00000000      24.58243212        1       1.00000000       0.00000000       0.00000000       0.00000000       0.00000000       0.00000000       0.00000000
H        2.80615512       0.00000000      24.58243212        1       1.00000000       0.00000000       0.00000000       0.00000000       0.00000000       0.00000000       0.00000000
H        1.40307756       2.43020162      24.58243212        1       1.00000000       0.00000000       0.00000000       0.00000000       0.00000000       0.00000000       0.00000000
H        4.20923268       2.43020162      24.58243212        1       1.00000000       0.00000000       0.00000000       0.00000000       0.00000000       0.00000000       0.00000000
H       -0.00213171       3.24109817      26.78652294        0       1.00000000       0.00007958       0.00049030      -0.00115349       0.00055046      -0.00095420      -0.00104532
H        0.00118050       4.84370364      29.00330339        0       1.00000000      -0.00033223       0.00147304       0.00097013       0.00814173      -0.00388107       0.00452380
H        2.80431909       3.23772026      26.79169786        0       1.00000000      -0.00102030       0.00168173      -0.00124872       0.00416804      -0.00367347       0.00041267
H        1.40108940       0.81060438      26.78965566        0       1.00000000      -0.00201345      -0.00253662       0.00089899      -0.00632776       0.00221731      -0.00625000
H        2.80994717       0.00933395      28.98520583        0       1.00000000       0.00216736       0.00233184       0.00163183      -0.00110184      -0.00164827       0.00421905
H        1.40491517       0.81194991      31.22168868        0       1.00000000      -0.00085850      -0.00056356       0.00002630      -0.00157986       0.00026069      -0.00175197
H        4.21546171       0.81214945      31.22249543        0       1.00000000      -0.00123537       0.00256823       0.00172261       0.00223834      -0.00373611      -0.00141063
H        4.21876364       2.43469042      29.00507691        0       1.00000000       0.00329025       0.00015844       0.00067912      -0.00052699       0.00588317      -0.00470150
H        4.21258718       0.81174890      26.78928919        0       1.00000000       0.00187715       0.00469869       0.00078480      -0.00271651       0.00419809      -0.00481912
H        2.81087257       3.24583939      31.21861826        0       1.00000000      -0.00131358      -0.00071613       0.00351287      -0.00245040       0.00264011       0.00394609
H        1.39496630       2.43577582      29.00518707        0       1.00000000       0.00116786       0.00334166      -0.00100289      -0.00362966      -0.00153135       0.00304271
23
Lattice="5.612310241546866 0.0 0.0 0.0 4.860403243099165 0.0 0.0 0.0 44.58243212332868" Properties=species:S:1:pos:R:3:tags:I:1:masses:R:1:momenta:R:3:forces:R:3 KEmax=29.729789663399384 iter=138811 volume=1216.1236359717223 set_wall=T ns_energy=-15.673664287880447 last_walked_iter_clone=138579 energy=-15.673713244118828 stress="0.02323078368305775 2.9790201740390626e-05 2.8392389050628805e-05 2.9790201740390626e-05 0.02331803164080804 2.212920365332078e-05 2.8392389050628805e-05 2.212920365332078e-05 0.00933629360647851" pbc="T T F"
H        1.40307756       0.81006721      20.00000000        3       1.00000000       0.00000000       0.00000000       0.00000000       0.00000000       0.00000000       0.00000000
H        4.20923268       0.81006721      20.00000000        3       1.00000000       0.00000000       0.00000000       0.00000000       0.00000000       0.00000000       0.00000000
H        0.00000000       3.24026883      20.00000000        3       1.00000000       0.00000000       0.00000000       0.00000000       0.00000000       0.00000000       0.00000000
H        2.80615512       3.24026883      20.00000000        3       1.00000000       0.00000000       0.00000000       0.00000000       0.00000000       0.00000000       0.00000000
H        0.00000000       1.62013441      22.29121606        2       1.00000000       0.00000000       0.00000000       0.00000000       0.00000000       0.00000000       0.00000000
H        2.80615512       1.62013441      22.29121606        2       1.00000000       0.00000000       0.00000000       0.00000000       0.00000000       0.00000000       0.00000000
H        1.40307756       4.05033604      22.29121606        2       1.00000000       0.00000000       0.00000000       0.00000000       0.00000000       0.00000000       0.00000000
H        4.20923268       4.05033604      22.29121606        2       1.00000000       0.00000000       0.00000000       0.00000000       0.00000000       0.00000000       0.00000000
H        0.00000000       0.00000000      24.58243212        1       1.00000000       0.00000000       0.00000000       0.00000000       0.00000000       0.00000000       0.00000000
H        2.80615512       0.00000000      24.58243212        1       1.00000000       0.00000000       0.00000000       0.00000000       0.00000000       0.00000000       0.00000000
H        1.40307756       2.43020162      24.58243212        1       1.00000000       0.00000000       0.00000000       0.00000000       0.00000000       0.00000000       0.00000000
H        4.20923268       2.43020162      24.58243212        1       1.00000000       0.00000000       0.00000000       0.00000000       0.00000000       0.00000000       0.00000000
H        0.00050375       3.23891773      26.78735834        0       1.00000000       0.00026128      -0.00065417      -0.00192372       0.00055046      -0.00095420      -0.00104532
H        0.00077496       4.84376982      29.00366079        0       1.00000000       0.00094700       0.00046155       0.00176075       0.00814173      -0.00388107       0.00452380
H        2.80738581       3.23754290      26.79398718        0       1.00000000       0.00064130       0.00243026       0.00324429       0.00416804      -0.00367347       0.00041267
H        1.40203998       0.80846129      26.79037279        0       1.00000000       0.00084149       0.00209255      -0.00182853      -0.00632776       0.00221731      -0.00625000
H        2.80688613       0.00780056      28.98780185        0       1.00000000      -0.00113161       0.00026902       0.00141067      -0.00110184      -0.00164827       0.00421905
H        1.40120878       0.80716033      31.22353763        0       1.00000000       0.00235295       0.00164143      -0.00049412      -0.00157986       0.00026069      -0.00175197
H        4.21191604       0.80599907      31.22404219        0       1.00000000      -0.00066070       0.00008733      -0.00106258       0.00223834      -0.00373611      -0.00141063
H        4.21929007       2.43487460      29.00846806        0       1.00000000      -0.00306669      -0.00061344      -0.00286875      -0.00052699       0.00588317      -0.00470150
H        4.21335546       0.81021378      26.79010131        0       1.00000000       0.00094376       0.00204654       0.00128589      -0.00271651       0.00419809      -0.00481912
H        2.80860074       3.24131266      31.22259279        0       1.00000000       0.00359673      -0.00006684      -0.00211683      -0.00245040       0.00264011       0.00394609
H        1.39743656       2.43221826      29.00711683        0       1.00000000      -0.00021114      -0.00154517      -0.00083688      -0.00362966      -0.00153135       0.00304271
23
Lattice="5.612310241546866 0.0 0.0 0.0 4.860403243099165 0.0 0.0 0.0 44.58243212332868" Properties=species:S:1:pos:R:3:tags:I:1:masses:R:1:momenta:R:3:forces:R:3 KEmax=29.729789663399384 iter=138811 volume=1216.1236359717223 set_wall=T ns_energy=-15.67366333227877 last_walked_iter_clone=138794 energy=-15.673713244118828 stress="0.02323078368305775 2.9790201740390626e-05 2.8392389050628805e-05 2.9790201740390626e-05 0.02331803164080804 2.212920365332078e-05 2.8392389050628805e-05 2.212920365332078e-05 0.00933629360647851" pbc="T T F"
H        1.40307756       0.81006721      20.00000000        3       1.00000000       0.00000000       0.00000000       0.00000000       0.00000000       0.00000000       0.00000000
H        4.20923268       0.81006721      20.00000000        3       1.00000000       0.00000000       0.00000000       0.00000000       0.00000000       0.00000000       0.00000000
H        0.00000000       3.24026883      20.00000000        3       1.00000000       0.00000000       0.00000000       0.00000000       0.00000000       0.00000000       0.00000000
H        2.80615512       3.24026883      20.00000000        3       1.00000000       0.00000000       0.00000000       0.00000000       0.00000000       0.00000000       0.00000000
H        0.00000000       1.62013441      22.29121606        2       1.00000000       0.00000000       0.00000000       0.00000000       0.00000000       0.00000000       0.00000000