23
Lattice="5.612310241546866 0.0 0.0 0.0 4.860403243099165 0.0 0.0 0.0 44.58243212332868" Properties=species:S:1:pos:R:3:tags:I:1:masses:R:1:momenta:R:3:forces:R:3 KEmax=29.729789663399384 iter=89940 volume=1216.1236359717223 set_wall=T ns_energy=-15.662037651101974 last_walked_iter_clone=89607 energy=-15.668673559251992 stress="0.023287858804536554 0.00019320488869111087 6.24355844595205e-05 0.00019320488869111087 0.023318474965639387 -0.0001579259450879645 6.24355844595205e-05 -0.0001579259450879645 0.009929874463756271" pbc="T T F"
H        1.40307756       0.81006721      20.00000000        3       1.00000000       0.00000000       0.00000000       0.00000000       0.00000000       0.00000000       0.00000000
H        4.20923268       0.81006721      20.00000000        3       1.00000000       0.00000000       0.00000000       0.00000000       0.00000000       0.00000000       0.00000000
H        0.00000000       3.24026883      20.00000000        3       1.00000000       0.00000000       0.00000000       0.00000000       0.00000000       0.00000000       0.00000000
H        2.80615512       3.24026883      20.00000000        3       1.00000000       0.00000000       0.00000000       0.00000000       0.00000000       0.00000000       0.00000000
H        0.00000000       1.62013441      22.29121606        2       1.00000000       0.00000000       0.00000000       0.00000000       0.00000000       0.00000000       0.00000000
H        2.80615512       1.62013441      22.29121606        2       1.00000000       0.00000000       0.00000000       0.00000000       0.00000000       0.00000000       0.00000000
H        1.40307756       4.05033604      22.29121606        2       1.00000000       0.00000000       0.00000000       0.00000000       0.00000000       0.00000000       0.00000000
H        4.20923268       4.05033604      22.29121606        2       1.00000000       0.00000000       0.00000000       0.00000000       0.00000000       0.00000000       0.00000000
H        0.00000000       0.00000000      24.58243212        1       1.00000000       0.00000000       0.00000000       0.00000000       0.00000000       0.00000000       0.00000000
H        2.80615512       0.00000000      24.58243212        1       1.00000000       0.00000000       0.00000000       0.00000000       0.00000000       0.00000000       0.00000000
H        1.40307756       2.43020162      24.58243212        1       1.00000000       0.00000000       0.00000000       0.00000000       0.00000000       0.00000000       0.00000000
H        4.20923268       2.43020162      24.58243212        1       1.00000000       0.00000000       0.00000000       0.00000000       0.00000000       0.00000000       0.00000000
H        5.62387549       3.24349605      26.80147811        0       1.00000000       0.03222050       0.02830765      -0.00154787      -0.03754797      -0.01133115       0.02164034
H        5.61168770       4.84286690      29.02122896        0       1.00000000      -0.04294822      -0.00702092      -0.02468835       0.02878505      -0.01992450       0.00115357
H        2.78478482       3.21560657      26.79874590        0       1.00000000      -0.04518961      -0.00196670      -0.05433572      -0.00268286       0.00356706      -0.01258540
H        1.39329838       0.80285411      26.79208813        0       1.00000000       0.01053675      -0.02916044       0.02120254       0.09796546      -0.02633098      -0.02523315
H        2.81157651       4.86003155      28.99133693        0       1.00000000      -0.00139577      -0.01352696      -0.00774439      -0.02751785       0.00744026      -0.08536367
H        1.39175725       0.81135665      31.23281252        0       1.00000000       0.01834289       0.00363400       0.00045884       0.00149004       0.06003371      -0.02654484
H        4.19823544       0.81204366      31.24724023        0       1.00000000      -0.00616557      -0.00387785      -0.00665391       0.02000079       0.04714843       0.00885618
H        4.20640375       2.43719246      29.02202679        0       1.00000000       0.02927954       0.00534130       0.01977405       0.02889006      -0.03164058       0.01326816
H        4.21716199       0.80255562      26.79146253        0       1.00000000       0.01842905      -0.00563509       0.00469024      -0.08076019       0.00111227       0.01409082
H        2.76087191       3.25290274      31.22770958        0       1.00000000      -0.00720135       0.00768089       0.01900939      -0.02184056      -0.07945730       0.02383384
H        1.38599021       2.41497327      29.01250691        0       1.00000000      -0.00667915       0.00303771      -0.01092678      -0.02294326       0.02983126       0.02204833
23
Lattice="5.612310241546866 0.0 0.0 0.0 4.860403243099165 0.0 0.0 0.0 44.58243212332868" Properties=species:S:1:pos:R:3:tags:I:1:masses:R:1:momenta:R:3:forces:R:3 KEmax=29.729789663399384 iter=89940 volume=1216.1236359717223 set_wall=T ns_energy=-15.662088830787496 last_walked_iter_clone=89786 energy=-15.668673559251992 stress="0.023287858804536554 0.00019320488869111087 6.24355844595205e-05 0.00019320488869111087 0.023318474965639387 -0.0001579259450879645 6.24355844595205e-05 -0.0001579259450879645 0.009929874463756271" pbc="T T F"
H        1.40307756       0.81006721      20.00000000        3       1.00000000       0.00000000       0.00000000       0.00000000       0.00000000       0.00000000       0.00000000
H        4.20923268       0.81006721      20.00000000        3       1.00000000       0.00000000       0.00000000       0.00000000       0.00000000       0.00000000       0.00000000
H        0.00000000       3.24026883      20.00000000        3       1.00000000       0.00000000       0.00000000       0.00000000       0.00000000       0.00000000       0.00000000
H        2.80615512       3.24026883      20.00000000        3       1.00000000       0.00000000       0.00000000       0.00000000       0.00000000       0.00000000       0.00000000
H        0.00000000       1.62013441      22.29121606        2       1.00000000       0.00000000       0.00000000       0.00000000       0.00000000       0.00000000       0.00000000
H        2.80615512       1.62013441      22.29121606        2       1.00000000       0.00000000       0.00000000       0.00000000       0.00000000       0.00000000       0.00000000
H        1.40307756       4.05033604      22.29121606        2       1.00000000       0.00000000       0.00000000       0.00000000       0.00000000       0.00000000       0.00000000
H        4.20923268       4.05033604      22.29121606        2       1.00000000       0.00000000       0.00000000       0.00000000       0.00000000       0.00000000       0.00000000
H        0.00000000       0.00000000      24.58243212        1       1.00000000       0.00000000       0.00000000       0.00000000       0.00000000       0.00000000       0.00000000
H        2.80615512       0.00000000      24.58243212        1       1.00000000       0.00000000       0.00000000       0.00000000       0.00000000       0.00000000       0.00000000
H        1.40307756       2.43020162      24.58243212        1       1.00000000       0.00000000       0.00000000       0.00000000       0.00000000       0.00000000       0.00000000
H        4.20923268       2.43020162      24.58243212        1       1.00000000       0.00000000       0.00000000       0.00000000       0.00000000       0.00000000       0.00000000
H       -0.02184191       3.24285200      26.78623573        0       1.00000000      -0.01539988       0.00284371      -0.02448879      -0.03754797      -0.01133115       0.02164034
H        5.62648752       4.83343092      29.00213745        0       1.00000000       0.01077540      -0.01673463      -0.00837458       0.02878505      -0.01992450       0.00115357
H        2.80606506       3.22577651      26.79730809        0       1.00000000       0.00860490      -0.00765653      -0.00896078      -0.00268286       0.00356706      -0.01258540
H        1.40331848       0.80109269      26.79339412        0       1.00000000       0.02087261      -0.00064769       0.02668458       0.09796546      -0.02633098      -0.02523315
H        2.82622474      -0.01837892      28.98752393        0       1.00000000       0.01570284      -0.03033448      -0.00584909      -0.02751785       0.00744026      -0.08536367
H        1.41096431       0.78677057      31.21210773        0       1.00000000      -0.00430909       0.00189563       0.03308804       0.00149004       0.06003371      -0.02654484
H        4.20755948       0.76462579      31.21152085        0       1.00000000      -0.00889576       0.04491905       0.00330907       0.02000079       0.04714843       0.00885618
H        4.19664784       2.41616452      29.02329495        0       1.00000000       0.00364803      -0.01818029      -0.00253211       0.02889006      -0.03164058       0.01326816
H        4.21332912       0.81710424      26.79464639        0       1.00000000      -0.03807420      -0.00071616      -0.01964396      -0.08076019       0.00111227       0.01409082
H        2.80743629       3.20272051      31.23653703        0       1.00000000       0.01163092       0.02692376      -0.01085691      -0.02184056      -0.07945730       0.02383384
H        1.39755401       2.43466218      28.98938827        0       1.00000000       0.01613821       0.01203423      -0.02559641      -0.02294326       0.02983126       0.02204833
23
Lattice="5.612310241546866 0.0 0.0 0.0 4.860403243099165 0.0 0.0 0.0 44.58243212332868" Properties=species:S:1:pos:R:3:tags:I:1:masses:R:1:momenta:R:3:forces:R:3 KEmax=29.729789663399384 iter=89940 volume=1216.1236359717223 set_wall=T ns_energy=-15.662039472080686 last_walked_iter_clone=89858 energy=-15.668673559251992 stress="0.023287858804536554 0.00019320488869111087 6.24355844595205e-05 0.00019320488869111087 0.023318474965639387 -0.0001579259450879645 6.24355844595205e-05 -0.0001579259450879645 0.009929874463756271" pbc="T T F"
H        1.40307756       0.81006721      20.00000000        3       1.00000000       0.00000000       0.00000000       0.00000000       0.00000000       0.00000000       0.00000000
H        4.20923268       0.81006721      20.00000000        3       1.00000000       0.00000000       0.00000000       0.00000000       0.00000000       0.00000000       0.00000000
H        0.00000000       3.24026883      20.00000000        3       1.00000000       0.00000000       0.00000000       0.00000000       0.00000000       0.00000000       0.00000000
H        2.80615512       3.24026883      20.00000000        3       1.00000000       0.00000000       0.00000000       0.00000000       0.00000000       0.00000000       0.00000000
H        0.00000000       1.62013441      22.29121606        2       1.00000000       0.00000000       0.00000000       0.00000000       0.00000000       0.00000000       0.00000000
H        2.80615512       1.62013441      22.29121606        2       1.00000000       0.00000000       0.00000000       0.00000000       0.00000000       0.00000000       0.00000000
H        1.40307756       4.05033604      22.29121606        2       1.00000000       0.00000000       0.00000000       0.00000000       0.00000000       0.00000000       0.00000000
H        4.20923268       4.05033604      22.29121606        2       1.00000000       0.00000000       0.00000000       0.00000000       0.00000000       0.00000000       0.00000000
H        0.00000000       0.00000000      24.58243212        1       1.00000000       0.00000000       0.00000000       0.00000000       0.00000000       0.00000000       0.00000000
H        2.80615512       0.00000000      24.58243212        1       1.00000000       0.00000000       0.00000000       0.00000000       0.00000000       0.00000000       0.00000000
H        1.40307756       2.43020162      24.58243212        1       1.00000000       0.00000000       0.00000000       0.00000000       0.00000000       0.00000000       0.00000000
H        4.20923268       2.43020162      24.58243212        1       1.00000000       0.00000000       0.00000000       0.00000000       0.00000000       0.00000000       0.00000000
H        5.60817199       3.21856898      26.79427607        0       1.00000000      -0.02339816       0.01595193      -0.03029265      -0.03754797      -0.01133115       0.02164034
H        5.59076461       4.79877008      29.01381519        0       1.00000000      -0.00693270       0.02367222       0.03375486       0.02878505      -0.01992450       0.00115357
H        2.80068753       3.23319482      26.76699057        0       1.00000000       0.00431322      -0.00349606       0.02075432      -0.00268286       0.00356706      -0.01258540
H        1.38658396       0.78154932      26.78517296        0       1.00000000       0.03196087       0.03320798       0.01679536       0.09796546      -0.02633098      -0.02523315
H        2.80599792       4.83827395      28.96908205        0       1.00000000      -0.03303438      -0.00828867       0.01519010      -0.02751785       0.00744026      -0.08536367
H        1.39867241       0.77334949      31.20292111        0       1.00000000      -0.00241378       0.01957816       0.01630862       0.00149004       0.06003371      -0.02654484
H        4.19476219       0.78819574      31.20730477        0       1.00000000      -0.00312067      -0.01795929       0.00257339       0.02000079       0.04714843       0.00885618
H        4.20072308       2.41521196      28.99338368        0       1.00000000      -0.02762979      -0.02039063       0.01524403       0.02889006      -0.03164058       0.01326816
H        4.21154343       0.81031289      26.78235430        0       1.00000000       0.00851953      -0.00096448      -0.01988952      -0.08076019       0.00111227       0.01409082
H        2.79011986       3.22116360      31.21132326        0       1.00000000      -0.00359071       0.00368959      -0.00833797      -0.02184056      -0.07945730       0.02383384
H        1.38406366       2.39564804      28.99647431        0       1.00000000       0.02049017       0.01273602       0.02657937      -0.02294326       0.02983126       0.02204833
23
Lattice="5.612310241546866 0.0 0.0 0.0 4.860403243099165 0.0 0.0 0.0 44.58243212332868" Properties=species:S:1:pos:R:3:tags:I:1:masses:R:1:momenta:R:3:forces:R:3 KEmax=29.729789663399384 iter=89940 volume=1216.1236359717223 set_wall=T ns_energy=-15.662218714666398 last_walked_iter_clone=89663 energy=-15.668673559251992 stress="0.023287858804536554 0.00019320488869111087 6.24355844595205e-05 0.00019320488869111087 0.023318474965639387 -0.0001579259450879645 6.24355844595205e-05 -0.0001579259450879645 0.009929874463756271" pbc="T T F"
H        1.40307756       0.81006721      20.00000000        3       1.00000000       0.00000000       0.00000000       0.00000000       0.00000000       0.00000000       0.00000000
H        4.20923268       0.81006721      20.00000000        3       1.00000000       0.00000000       0.00000000       0.00000000       0.00000000       0.00000000       0.00000000
H        0.00000000       3.24026883      20.00000000        3       1.00000000       0.00000000       0.00000000       0.00000000       0.00000000       0.00000000       0.00000000
H        2.80615512       3.24026883      20.00000000        3       1.00000000       0.00000000       0.00000000       0.00000000       0.00000000       0.00000000       0.00000000
H        0.00000000       1.62013441      22.29121606        2       1.00000000       0.00000000       0.00000000       0.00000000       0.00000000       0.00000000       0.00000000
H        2.80615512       1.62013441      22.29121606        2       1.00000000       0.00000000       0.00000000       0.00000000       0.00000000       0.00000000       0.00000000
H        1.40307756       4.05033604      22.29121606        2       1.00000000       0.00000000       0.00000000       0.00000000       0.00000000       0.00000000       0.00000000
H        4.20923268       4.05033604      22.29121606        2       1.00000000       0.00000000       0.00000000       0.00000000       0.00000000       0.00000000       0.00000000
H        0.00000000       0.00000000      24.58243212        1       1.00000000       0.00000000       0.00000000       0.00000000       0.00000000       0.00000000       0.00000000
H        2.80615512       0.00000000      24.58243212        1       1.00000000       0.00000000       0.00000000       0.00000000       0.00000000       0.00000000       0.00000000
H        1.40307756       2.43020162      24.58243212        1       1.00000000       0.00000000       0.00000000       0.00000000       0.00000000       0.00000000       0.00000000
H        4.20923268       2.43020162      24.58243212        1       1.00000000       0.00000000       0.00000000       0.00000000       0.00000000       0.00000000       0.00000000
H        5.60990795       3.23257009      26.79539702        0       1.00000000       0.02889195      -0.01219223      -0.00049365      -0.03754797      -0.01133115       0.02164034
H       -0.00742696       4.81628563      28.99899826        0       1.00000000       0.02644026       0.02957800      -0.00555751       0.02878505      -0.01992450       0.00115357
H        2.81606283       3.23441781      26.79674578        0       1.00000000       0.01348604      -0.00188933       0.00187095      -0.00268286       0.00356706      -0.01258540
H        1.38806403       0.80539197      26.78988374        0       1.00000000       0.01927375       0.00891093      -0.01882978       0.09796546      -0.02633098      -0.02523315
H        2.82101338       4.83767088      28.97498362        0       1.00000000      -0.01802429       0.01230069       0.02263421      -0.02751785       0.00744026      -0.08536367
H        1.43537876       0.76257148      31.20034834        0       1.00000000      -0.03503783       0.02123149       0.01349511       0.00149004       0.06003371      -0.02654484
H        4.24638274       0.77373293      31.24402726        0       1.00000000       0.00780853       0.02197100      -0.01857832       0.02000079       0.04714843       0.00885618
H        4.21366214       2.40635254      29.00914837        0       1.00000000      -0.01976655       0.03694666       0.00155815       0.02889006      -0.03164058       0.01326816
H        4.20054902       0.79920321      26.78131752        0       1.00000000       0.00859644       0.01179094      -0.03105007      -0.08076019       0.00111227       0.01409082
H        2.84888598       3.21902304      31.22347465        0       1.00000000       0.01522514      -0.02183105      -0.01949679      -0.02184056      -0.07945730       0.02383384
H        1.38245153       2.40812316      29.00540413        0       1.00000000      -0.00692818      -0.01929830       0.00537703      -0.02294326       0.02983126       0.02204833
23
Lattice="5.612310241546866 0.0 0.0 0.0 4.860403243099165 0.0 0.0 0.0 44.58243212332868" Properties=species:S:1:pos:R:3:tags:I:1:masses:R:1:momenta:R:3:forces:R:3 KEmax=29.729789663399384 iter=89940 volume=1216.1236359717223 set_wall=T ns_energy=-15.661995513612908 last_walked_iter_clone=89682 energy=-15.668673559251992 stress="0.023287858804536554 0.00019320488869111087 6.24355844595205e-05 0.00019320488869111087 0.023318474965639387 -0.0001579259450879645 6.24355844595205e-05 -0.0001579259450879645 0.009929874463756271" pbc="T T F"
H        1.40307756       0.81006721      20.00000000        3       1.00000000       0.00000000       0.00000000       0.00000000       0.00000000       0.00000000       0.00000000
H        4.20923268       0.81006721      20.00000000        3       1.00000000       0.00000000       0.00000000       0.00000000       0.00000000       0.00000000       0.00000000
H        0.00000000       3.24026883      20.00000000        3       1.00000000       0.00000000       0.00000000       0.00000000       0.00000000       0.00000000       0.00000000
H        2.80615512       3.24026883      20.00000000        3       1.00000000       0.00000000       0.00000000       0.00000000       0.00000000       0.00000000       0.00000000
H        0.00000000       1.62013441      22.29121606        2       1.00000000       0.00000000       0.00000000       0.00000000       0.00000000       0.00000000       0.00000000
H        2.80615512       1.62013441      22.29121606        2       1.00000000       0.00000000       0.00000000       0.00000000       0.00000000       0.00000000       0.00000000
H        1.40307756       4.05033604      22.29121606        2       1.00000000       0.00000000       0.00000000       0.00000000       0.00000000       0.00000000       0.00000000
H        4.20923268       4.05033604      22.29121606        2       1.00000000       0.00000000       0.00000000       0.00000000       0.00000000       0.00000000       0.00000000
H        0.00000000       0.00000000      24.58243212        1       1.00000000       0.00000000       0.00000000       0.00000000       0.00000000       0.00000000       0.00000000
H        2.80615512       0.00000000      24.58243212        1       1.00000000       0.00000000       0.00000000       0.00000000       0.00000000       0.00000000       0.00000000
H        1.40307756       2.43020162      24.58243212        1       1.00000000       0.00000000       0.00000000       0.00000000       0.00000000       0.00000000       0.00000000
H        4.20923268       2.43020162      24.58243212        1       1.00000000       0.00000000       0.00000000       0.00000000       0.00000000       0.00000000       0.00000000
H        5.61105568       3.25395673      26.79493000        0       1.00000000       0.01644910      -0.00441138       0.03025033      -0.03754797      -0.01133115       0.02164034
H        5.57952902       4.85140493      29.00403608        0       1.00000000       0.00160235       0.00627688       0.02030065       0.02878505      -0.01992450       0.00115357
H        2.80755337       3.23283588      26.78983930        0       1.00000000       0.02044788       0.00312546       0.01230412      -0.00268286       0.00356706      -0.01258540
H        1.39053395       0.81645412      26.78713761        0       1.00000000       0.00589112       0.03442565       0.03349319       0.09796546      -0.02633098      -0.02523315
H        2.77428484       0.03230253      28.99670330        0       1.00000000       0.00520719      -0.01718302       0.01059735      -0.02751785       0.00744026      -0.08536367
H        1.36514860       0.82688028      31.23614859        0       1.00000000      -0.00975230      -0.01688271      -0.00109587       0.00149004       0.06003371      -0.02654484
H        4.17661507       0.83150572      31.24240983        0       1.00000000      -0.01430808      -0.03401635      -0.00578833       0.02000079       0.04714843       0.00885618
H        4.20737079       2.43177622      29.01340183        0       1.00000000       0.02765411      -0.00969093       0.02391682       0.02889006      -0.03164058       0.01326816
H        4.17816424       0.81510872      26.80373920        0       1.00000000       0.04282169      -0.03575884      -0.01903694      -0.08076019       0.00111227       0.01409082
H        2.77740119       3.25628950      31.21958816        0       1.00000000       0.02161246      -0.02925785       0.00665499      -0.02184056      -0.07945730       0.02383384
H        1.37398384       2.43553660      29.01110077        0       1.00000000       0.01497154       0.01509975       0.00791836      -0.02294326       0.02983126       0.02204833
23
Lattice="5.612310241546866 0.0 0.0 0.0 4.860403243099165 0.0 0.0 0.0 44.58243212332868" Properties=species:S:1:pos:R:3:tags:I:1:masses:R:1:momenta:R:3:forces:R:3 KEmax=29.729789663399384 iter=89940 volume=1216.1236359717223 set_wall=T ns_energy=-15.662109288943173 last_walked_iter_clone=89879 energy=-15.668673559251992 stress="0.023287858804536554 0.00019320488869111087 6.24355844595205e-05 0.00019320488869111087 0.023318474965639387 -0.0001579259450879645 6.24355844595205e-05 -0.0001579259450879645 0.009929874463756271" pbc="T T F"
H        1.40307756       0.81006721      20.00000000        3       1.00000000       0.00000000       0.00000000       0.00000000       0.00000000       0.00000000       0.00000000
H        4.20923268       0.81006721      20.00000000        3       1.00000000       0.00000000       0.00000000       0.00000000       0.00000000       0.00000000       0.00000000
H        0.00000000       3.24026883      20.00000000        3       1.00000000       0.00000000       0.00000000       0.00000000       0.00000000       0.00000000       0.00000000
H        2.80615512       3.24026883      20.00000000        3       1.00000000       0.00000000       0.00000000       0.00000000       0.00000000       0.00000000       0.00000000
H        0.00000000       1.62013441      22.29121606        2       1.00000000       0.00000000       0.00000000       0.00000000       0.00000000       0.00000000       0.00000000
H        2.80615512       1.62013441      22.29121606        2       1.00000000       0.00000000       0.00000000       0.00000000       0.00000000       0.00000000       0.00000000
H        1.40307756       4.05033604      22.29121606        2       1.00000000       0.00000000       0.00000000       0.00000000       0.00000000       0.00000000       0.00000000
H        4.20923268       4.05033604      22.29121606        2       1.00000000       0.00000000       0.00000000       0.00000000       0.00000000       0.00000000       0.00000000
H        0.00000000       0.00000000      24.58243212        1       1.00000000       0.00000000       0.00000000       0.00000000       0.00000000       0.00000000       0.00000000
H        2.80615512       0.00000000      24.58243212        1       1.00000000       0.00000000       0.00000000       0.00000000       0.00000000       0.00000000       0.00000000
H        1.40307756       2.43020162      24.58243212        1       1.00000000       0.00000000       0.00000000       0.00000000       0.00000000       0.00000000       0.00000000
H        4.20923268       2.43020162      24.58243212        1       1.00000000       0.00000000       0.00000000       0.00000000       0.00000000       0.00000000       0.00000000
H       -0.01253379       3.21647699      26.77411997        0       1.00000000      -0.00667886       0.01945604       0.00494060      -0.03754797      -0.01133115       0.02164034
H       -0.00007743       4.83500264      28.99367278        0       1.00000000      -0.00056796      -0.03096787      -0.00104537       0.02878505      -0.01992450       0.00115357
H        2.80981660       3.24805685      26.80771717        0       1.00000000       0.00051329       0.00218477       0.00201681      -0.00268286       0.00356706      -0.01258540
H        1.40324278       0.81345792      26.79155573        0       1.00000000      -0.03160439       0.00363403       0.02329328       0.09796546      -0.02633098      -0.02523315
H        2.80522272      -0.00671824      28.99536371        0       1.00000000       0.00568421      -0.01984064       0.01090397      -0.02751785       0.00744026      -0.08536367
H        1.43117030       0.81372319      31.21368775        0       1.00000000      -0.01286672       0.00523158      -0.00985859       0.00149004       0.06003371      -0.02654484
H        4.24593401       0.79161119      31.22812201        0       1.00000000       0.00349104      -0.01522097      -0.00361981       0.02000079       0.04714843       0.00885618
H        4.20904977       2.42429156      29.01216698        0       1.00000000      -0.01544667       0.03530112      -0.00208805       0.02889006      -0.03164058       0.01326816
H        4.20463738       0.82772993      26.77661295        0       1.00000000      -0.00648573       0.01648230      -0.02303322      -0.08076019       0.00111227       0.01409082
H        2.81465245       3.23267316      31.24998363        0       1.00000000      -0.03359591      -0.01742945       0.01556273      -0.02184056      -0.07945730       0.02383384
H        1.37243558       2.42298092      29.01638833        0       1.00000000      -0.01120928       0.00971011       0.02803338      -0.02294326       0.02983126       0.02204833
23
Lattice="5.612310241546866 0.0 0.0 0.0 4.860403243099165 0.0 0.0 0.0 44.58243212332868" Properties=species:S:1:pos:R:3:tags:I:1:masses:R:1:momenta:R:3:forces:R:3 KEmax=29.729789663399384 iter=89940 volume=1216.1236359717223 set_wall=T ns_energy=-15.662066969156658 last_walked_iter_clone=89916 energy=-15.668673559251992 stress="0.023287858804536554 0.00019320488869111087 6.24355844595205e-05 0.00019320488869111087 0.023318474965639387 -0.0001579259450879645 6.24355844595205e-05 -0.0001579259450879645 0.009929874463756271" pbc="T T F"
H        1.40307756       0.81006721      20.00000000        3       1.00000000       0.00000000       0.00000000       0.00000000       0.00000000       0.00000000       0.00000000
H        4.20923268       0.81006721      20.00000000        3       1.00000000       0.00000000       0.00000000       0.00000000       0.00000000       0.00000000       0.00000000
H        0.00000000       3.24026883      20.00000000        3       1.00000000       0.00000000       0.00000000       0.00000000       0.00000000       0.00000000       0.00000000
H        2.80615512       3.24026883      20.00000000        3       1.00000000       0.00000000       0.00000000       0.00000000       0.00000000       0.00000000       0.00000000
H        0.00000000       1.62013441      22.29121606        2       1.00000000       0.00000000       0.00000000       0.00000000       0.00000000       0.00000000       0.00000000