23
Lattice="5.612310241546866 0.0 0.0 0.0 4.860403243099165 0.0 0.0 0.0 44.58243212332868" Properties=species:S:1:pos:R:3:tags:I:1:masses:R:1:momenta:R:3:forces:R:3 KEmax=29.729789663399384 iter=150611 volume=1216.1236359717223 set_wall=T ns_energy=-15.673730125765543 last_walked_iter_clone=150426 energy=-15.67374692631282 stress="0.0232678825824068 8.069310376863189e-07 3.889472190007504e-05 8.069310376863189e-07 0.02332808357057799 -1.4651120943949218e-05 3.889472190007504e-05 -1.4651120943949218e-05 0.009409154650827492" pbc="T T F"
H        1.40307756       0.81006721      20.00000000        3       1.00000000       0.00000000       0.00000000       0.00000000       0.00000000       0.00000000       0.00000000
H        4.20923268       0.81006721      20.00000000        3       1.00000000       0.00000000       0.00000000       0.00000000       0.00000000       0.00000000       0.00000000
H        0.00000000       3.24026883      20.00000000        3       1.00000000       0.00000000       0.00000000       0.00000000       0.00000000       0.00000000       0.00000000
H        2.80615512       3.24026883      20.00000000        3       1.00000000       0.00000000       0.00000000       0.00000000       0.00000000       0.00000000       0.00000000
H        0.00000000       1.62013441      22.29121606        2       1.00000000       0.00000000       0.00000000       0.00000000       0.00000000       0.00000000       0.00000000
H        2.80615512       1.62013441      22.29121606        2       1.00000000       0.00000000       0.00000000       0.00000000       0.00000000       0.00000000       0.00000000
H        1.40307756       4.05033604      22.29121606        2       1.00000000       0.00000000       0.00000000       0.00000000       0.00000000       0.00000000       0.00000000
H        4.20923268       4.05033604      22.29121606        2       1.00000000       0.00000000       0.00000000       0.00000000       0.00000000       0.00000000       0.00000000
H        0.00000000       0.00000000      24.58243212        1       1.00000000       0.00000000       0.00000000       0.00000000       0.00000000       0.00000000       0.00000000
H        2.80615512       0.00000000      24.58243212        1       1.00000000       0.00000000       0.00000000       0.00000000       0.00000000       0.00000000       0.00000000
H        1.40307756       2.43020162      24.58243212        1       1.00000000       0.00000000       0.00000000       0.00000000       0.00000000       0.00000000       0.00000000
H        4.20923268       2.43020162      24.58243212        1       1.00000000       0.00000000       0.00000000       0.00000000       0.00000000       0.00000000       0.00000000
H        0.00147162       3.24124979      26.78577012        0       1.00000000       0.00033582      -0.00021868       0.00092114      -0.00117967      -0.00312450       0.00089106
H        0.00065265       4.84365107      29.00455434        0       1.00000000      -0.00017293       0.00080591      -0.00016413      -0.00155008      -0.00064434       0.00201731
H        2.80722695       3.23801623      26.79152770        0       1.00000000      -0.00118678       0.00035288       0.00011096       0.00447381       0.00043463      -0.00048527
H        1.40090096       0.81210069      26.78945932        0       1.00000000       0.00001114      -0.00144180       0.00046402      -0.00103317      -0.00093454      -0.00150560
H        2.80623705       0.01031927      28.98639540        0       1.00000000       0.00092760      -0.00012959       0.00066045       0.00185831      -0.00195964       0.00173593
H        1.40164954       0.81090950      31.22338276        0       1.00000000       0.00168671      -0.00168375       0.00144253       0.00091341      -0.00211199      -0.00057638
H        4.21244119       0.81147106      31.22263561        0       1.00000000      -0.00102364      -0.00050488       0.00075859      -0.00134720      -0.00003683       0.00093535
H        4.21928697       2.43580683      29.00555375        0       1.00000000       0.00241653      -0.00045165       0.00114574      -0.00020599       0.00445976      -0.00392570
H        4.21296169       0.81048238      26.79059011        0       1.00000000       0.00163853       0.00034371      -0.00045549      -0.00246715       0.00097110      -0.00148624
H        2.80702727       3.24490943      31.22082395        0       1.00000000       0.00009928       0.00088159      -0.00129140      -0.00170739       0.00092424      -0.00069036
H        1.39613149       2.43586619      29.00571557        0       1.00000000      -0.00044433       0.00017264       0.00014723       0.00052739       0.00230762      -0.00062129
23
Lattice="5.612310241546866 0.0 0.0 0.0 4.860403243099165 0.0 0.0 0.0 44.58243212332868" Properties=species:S:1:pos:R:3:tags:I:1:masses:R:1:momenta:R:3:forces:R:3 KEmax=29.729789663399384 iter=150611 volume=1216.1236359717223 set_wall=T ns_energy=-15.673730993078676 last_walked_iter_clone=150568 energy=-15.67374692631282 stress="0.0232678825824068 8.069310376863189e-07 3.889472190007504e-05 8.069310376863189e-07 0.02332808357057799 -1.4651120943949218e-05 3.889472190007504e-05 -1.4651120943949218e-05 0.009409154650827492" pbc="T T F"
H        1.40307756       0.81006721      20.00000000        3       1.00000000       0.00000000       0.00000000       0.00000000       0.00000000       0.00000000       0.00000000
H        4.20923268       0.81006721      20.00000000        3       1.00000000       0.00000000       0.00000000       0.00000000       0.00000000       0.00000000       0.00000000
H        0.00000000       3.24026883      20.00000000        3       1.00000000       0.00000000       0.00000000       0.00000000       0.00000000       0.00000000       0.00000000
H        2.80615512       3.24026883      20.00000000        3       1.00000000       0.00000000       0.00000000       0.00000000       0.00000000       0.00000000       0.00000000
H        0.00000000       1.62013441      22.29121606        2       1.00000000       0.00000000       0.00000000       0.00000000       0.00000000       0.00000000       0.00000000
H        2.80615512       1.62013441      22.29121606        2       1.00000000       0.00000000       0.00000000       0.00000000       0.00000000       0.00000000       0.00000000
H        1.40307756       4.05033604      22.29121606        2       1.00000000       0.00000000       0.00000000       0.00000000       0.00000000       0.00000000       0.00000000
H        4.20923268       4.05033604      22.29121606        2       1.00000000       0.00000000       0.00000000       0.00000000       0.00000000       0.00000000       0.00000000
H        0.00000000       0.00000000      24.58243212        1       1.00000000       0.00000000       0.00000000       0.00000000       0.00000000       0.00000000       0.00000000
H        2.80615512       0.00000000      24.58243212        1       1.00000000       0.00000000       0.00000000       0.00000000       0.00000000       0.00000000       0.00000000
H        1.40307756       2.43020162      24.58243212        1       1.00000000       0.00000000       0.00000000       0.00000000       0.00000000       0.00000000       0.00000000
H        4.20923268       2.43020162      24.58243212        1       1.00000000       0.00000000       0.00000000       0.00000000       0.00000000       0.00000000       0.00000000
H        5.61109164       3.23958572      26.78545994        0       1.00000000       0.00024646      -0.00072177      -0.00155564      -0.00117967      -0.00312450       0.00089106
H        5.61179770       4.84272695      29.00329844        0       1.00000000       0.00105263       0.00028948       0.00128278      -0.00155008      -0.00064434       0.00201731
H        2.80578202       3.23739831      26.79207453        0       1.00000000      -0.00158406       0.00136914       0.00113666       0.00447381       0.00043463      -0.00048527
H        1.39982331       0.81099698      26.78936946        0       1.00000000      -0.00122882      -0.00191632       0.00087803      -0.00103317      -0.00093454      -0.00150560
H        2.80622177       0.00824962      28.98533564        0       1.00000000      -0.00157390       0.00083316       0.00308701       0.00185831      -0.00195964       0.00173593
H        1.40037771       0.80828731      31.22174934        0       1.00000000      -0.00149009       0.00047653      -0.00192624       0.00091341      -0.00211199      -0.00057638
H        4.21083589       0.80864229      31.22330021        0       1.00000000       0.00091563      -0.00072612      -0.00072207      -0.00134720      -0.00003683       0.00093535
H        4.21787385       2.43274355      29.00622852        0       1.00000000       0.00034777      -0.00034612       0.00176612      -0.00020599       0.00445976      -0.00392570
H        4.21115807       0.81147210      26.78938324        0       1.00000000       0.00016053       0.00075487      -0.00080003      -0.00246715       0.00097110      -0.00148624
H        2.80537437       3.24281036      31.21979129        0       1.00000000      -0.00036747       0.00035912      -0.00052809      -0.00170739       0.00092424      -0.00069036
H        1.39467193       2.43298378      29.00550788        0       1.00000000       0.00009831       0.00038851      -0.00174046       0.00052739       0.00230762      -0.00062129
23
Lattice="5.612310241546866 0.0 0.0 0.0 4.860403243099165 0.0 0.0 0.0 44.58243212332868" Properties=species:S:1:pos:R:3:tags:I:1:masses:R:1:momenta:R:3:forces:R:3 KEmax=29.729789663399384 iter=150611 volume=1216.1236359717223 set_wall=T ns_energy=-15.673730190664214 last_walked_iter_clone=150403 energy=-15.67374692631282 stress="0.0232678825824068 8.069310376863189e-07 3.889472190007504e-05 8.069310376863189e-07 0.02332808357057799 -1.4651120943949218e-05 3.889472190007504e-05 -1.4651120943949218e-05 0.009409154650827492" pbc="T T F"
H        1.40307756       0.81006721      20.00000000        3       1.00000000       0.00000000       0.00000000       0.00000000       0.00000000       0.00000000       0.00000000
H        4.20923268       0.81006721      20.00000000        3       1.00000000       0.00000000       0.00000000       0.00000000       0.00000000       0.00000000       0.00000000
H        0.00000000       3.24026883      20.00000000        3       1.00000000       0.00000000       0.00000000       0.00000000       0.00000000       0.00000000       0.00000000
H        2.80615512       3.24026883      20.00000000        3       1.00000000       0.00000000       0.00000000       0.00000000       0.00000000       0.00000000       0.00000000
H        0.00000000       1.62013441      22.29121606        2       1.00000000       0.00000000       0.00000000       0.00000000       0.00000000       0.00000000       0.00000000
H        2.80615512       1.62013441      22.29121606        2       1.00000000       0.00000000       0.00000000       0.00000000       0.00000000       0.00000000       0.00000000
H        1.40307756       4.05033604      22.29121606        2       1.00000000       0.00000000       0.00000000       0.00000000       0.00000000       0.00000000       0.00000000
H        4.20923268       4.05033604      22.29121606        2       1.00000000       0.00000000       0.00000000       0.00000000       0.00000000       0.00000000       0.00000000
H        0.00000000       0.00000000      24.58243212        1       1.00000000       0.00000000       0.00000000       0.00000000       0.00000000       0.00000000       0.00000000
H        2.80615512       0.00000000      24.58243212        1       1.00000000       0.00000000       0.00000000       0.00000000       0.00000000       0.00000000       0.00000000
H        1.40307756       2.43020162      24.58243212        1       1.00000000       0.00000000       0.00000000       0.00000000       0.00000000       0.00000000       0.00000000
H        4.20923268       2.43020162      24.58243212        1       1.00000000       0.00000000       0.00000000       0.00000000       0.00000000       0.00000000       0.00000000
H        5.61069750       3.24019314      26.78532222        0       1.00000000      -0.00017730       0.00109395      -0.00064610      -0.00117967      -0.00312450       0.00089106
H       -0.00186098       4.84473325      29.00370631        0       1.00000000       0.00054902       0.00096474      -0.00152790      -0.00155008      -0.00064434       0.00201731
H        2.80573401       3.23864080      26.79107824        0       1.00000000      -0.00027951      -0.00014464       0.00208302       0.00447381       0.00043463      -0.00048527
H        1.39910428       0.81181609      26.79038375        0       1.00000000       0.00044504      -0.00124434       0.00034911      -0.00103317      -0.00093454      -0.00150560
H        2.80579673       0.00928655      28.98598674        0       1.00000000      -0.00193210       0.00023280      -0.00038542       0.00185831      -0.00195964       0.00173593
H        1.39964164       0.81153180      31.22296902        0       1.00000000      -0.00042582       0.00069388       0.00053380       0.00091341      -0.00211199      -0.00057638
H        4.21032543       0.81097346      31.22307481        0       1.00000000      -0.00134216      -0.00186428       0.00077161      -0.00134720      -0.00003683       0.00093535
H        4.21608597       2.43408706      29.00489405        0       1.00000000      -0.00008576      -0.00084654       0.00028056      -0.00020599       0.00445976      -0.00392570
H        4.21087033       0.81204449      26.78912685        0       1.00000000       0.00007878       0.00215056      -0.00073534      -0.00246715       0.00097110      -0.00148624
H        2.80524139       3.24554412      31.22054793        0       1.00000000       0.00100127      -0.00078031      -0.00016027      -0.00170739       0.00092424      -0.00069036
H        1.39340585       2.43481047      29.00565645        0       1.00000000       0.00066689       0.00082336       0.00058239       0.00052739       0.00230762      -0.00062129
23
Lattice="5.612310241546866 0.0 0.0 0.0 4.860403243099165 0.0 0.0 0.0 44.58243212332868" Properties=species:S:1:pos:R:3:tags:I:1:masses:R:1:momenta:R:3:forces:R:3 KEmax=29.729789663399384 iter=150611 volume=1216.1236359717223 set_wall=T ns_energy=-15.67373042108979 last_walked_iter_clone=150243 energy=-15.67374692631282 stress="0.0232678825824068 8.069310376863189e-07 3.889472190007504e-05 8.069310376863189e-07 0.02332808357057799 -1.4651120943949218e-05 3.889472190007504e-05 -1.4651120943949218e-05 0.009409154650827492" pbc="T T F"
H        1.40307756       0.81006721      20.00000000        3       1.00000000       0.00000000       0.00000000       0.00000000       0.00000000       0.00000000       0.00000000
H        4.20923268       0.81006721      20.00000000        3       1.00000000       0.00000000       0.00000000       0.00000000       0.00000000       0.00000000       0.00000000
H        0.00000000       3.24026883      20.00000000        3       1.00000000       0.00000000       0.00000000       0.00000000       0.00000000       0.00000000       0.00000000
H        2.80615512       3.24026883      20.00000000        3       1.00000000       0.00000000       0.00000000       0.00000000       0.00000000       0.00000000       0.00000000
H        0.00000000       1.62013441      22.29121606        2       1.00000000       0.00000000       0.00000000       0.00000000       0.00000000       0.00000000       0.00000000
H        2.80615512       1.62013441      22.29121606        2       1.00000000       0.00000000       0.00000000       0.00000000       0.00000000       0.00000000       0.00000000
H        1.40307756       4.05033604      22.29121606        2       1.00000000       0.00000000       0.00000000       0.00000000       0.00000000       0.00000000       0.00000000
H        4.20923268       4.05033604      22.29121606        2       1.00000000       0.00000000       0.00000000       0.00000000       0.00000000       0.00000000       0.00000000
H        0.00000000       0.00000000      24.58243212        1       1.00000000       0.00000000       0.00000000       0.00000000       0.00000000       0.00000000       0.00000000
H        2.80615512       0.00000000      24.58243212        1       1.00000000       0.00000000       0.00000000       0.00000000       0.00000000       0.00000000       0.00000000
H        1.40307756       2.43020162      24.58243212        1       1.00000000       0.00000000       0.00000000       0.00000000       0.00000000       0.00000000       0.00000000
H        4.20923268       2.43020162      24.58243212        1       1.00000000       0.00000000       0.00000000       0.00000000       0.00000000       0.00000000       0.00000000
H       -0.00058216       3.24031062      26.78567533        0       1.00000000      -0.00168950       0.00229049       0.00027884      -0.00117967      -0.00312450       0.00089106
H        5.61221239       4.84392342      29.00320991        0       1.00000000      -0.00144091       0.00178372      -0.00087930      -0.00155008      -0.00064434       0.00201731
H        2.80540195       3.23823411      26.79162327        0       1.00000000       0.00023520       0.00071476      -0.00106708       0.00447381       0.00043463      -0.00048527
H        1.40008755       0.81236995      26.78883461        0       1.00000000      -0.00171592       0.00035555       0.00054642      -0.00103317      -0.00093454      -0.00150560
H        2.80698232       0.00887275      28.98480703        0       1.00000000      -0.00105700       0.00007650       0.00152627       0.00185831      -0.00195964       0.00173593
H        1.40032970       0.80899391      31.22218124        0       1.00000000       0.00091252       0.00129932      -0.00038692       0.00091341      -0.00211199      -0.00057638
H        4.21063237       0.80898310      31.22212072        0       1.00000000      -0.00075835      -0.00059301      -0.00150232      -0.00134720      -0.00003683       0.00093535
H        4.21735976       2.43447320      29.00642891        0       1.00000000      -0.00040033       0.00073258      -0.00224126      -0.00020599       0.00445976      -0.00392570
H        4.21233655       0.81139430      26.78956871        0       1.00000000       0.00123020      -0.00199739      -0.00065590      -0.00246715       0.00097110      -0.00148624
H        2.80556495       3.24384025      31.22118440        0       1.00000000      -0.00120173       0.00025366      -0.00050416      -0.00170739       0.00092424      -0.00069036
H        1.39451285       2.43518389      29.00600542        0       1.00000000      -0.00010726       0.00002407       0.00029189       0.00052739       0.00230762      -0.00062129
23
Lattice="5.612310241546866 0.0 0.0 0.0 4.860403243099165 0.0 0.0 0.0 44.58243212332868" Properties=species:S:1:pos:R:3:tags:I:1:masses:R:1:momenta:R:3:forces:R:3 KEmax=29.729789663399384 iter=150611 volume=1216.1236359717223 set_wall=T ns_energy=-15.673730208221285 last_walked_iter_clone=150375 energy=-15.67374692631282 stress="0.0232678825824068 8.069310376863189e-07 3.889472190007504e-05 8.069310376863189e-07 0.02332808357057799 -1.4651120943949218e-05 3.889472190007504e-05 -1.4651120943949218e-05 0.009409154650827492" pbc="T T F"
H        1.40307756       0.81006721      20.00000000        3       1.00000000       0.00000000       0.00000000       0.00000000       0.00000000       0.00000000       0.00000000
H        4.20923268       0.81006721      20.00000000        3       1.00000000       0.00000000       0.00000000       0.00000000       0.00000000       0.00000000       0.00000000
H        0.00000000       3.24026883      20.00000000        3       1.00000000       0.00000000       0.00000000       0.00000000       0.00000000       0.00000000       0.00000000
H        2.80615512       3.24026883      20.00000000        3       1.00000000       0.00000000       0.00000000       0.00000000       0.00000000       0.00000000       0.00000000
H        0.00000000       1.62013441      22.29121606        2       1.00000000       0.00000000       0.00000000       0.00000000       0.00000000       0.00000000       0.00000000
H        2.80615512       1.62013441      22.29121606        2       1.00000000       0.00000000       0.00000000       0.00000000       0.00000000       0.00000000       0.00000000
H        1.40307756       4.05033604      22.29121606        2       1.00000000       0.00000000       0.00000000       0.00000000       0.00000000       0.00000000       0.00000000
H        4.20923268       4.05033604      22.29121606        2       1.00000000       0.00000000       0.00000000       0.00000000       0.00000000       0.00000000       0.00000000
H        0.00000000       0.00000000      24.58243212        1       1.00000000       0.00000000       0.00000000       0.00000000       0.00000000       0.00000000       0.00000000
H        2.80615512       0.00000000      24.58243212        1       1.00000000       0.00000000       0.00000000       0.00000000       0.00000000       0.00000000       0.00000000
H        1.40307756       2.43020162      24.58243212        1       1.00000000       0.00000000       0.00000000       0.00000000       0.00000000       0.00000000       0.00000000
H        4.20923268       2.43020162      24.58243212        1       1.00000000       0.00000000       0.00000000       0.00000000       0.00000000       0.00000000       0.00000000
H        5.61174243       3.23930564      26.78643146        0       1.00000000      -0.00000334      -0.00009690      -0.00045367      -0.00117967      -0.00312450       0.00089106
H        5.61238400       4.84339388      29.00389038        0       1.00000000       0.00007585      -0.00035758       0.00090917      -0.00155008      -0.00064434       0.00201731
H        2.80614701       3.23784018      26.79202267        0       1.00000000       0.00103779      -0.00116504       0.00163640       0.00447381       0.00043463      -0.00048527
H        1.40047323       0.81113673      26.78917832        0       1.00000000       0.00096319      -0.00142054      -0.00063376      -0.00103317      -0.00093454      -0.00150560
H        2.80622650       0.00799423      28.98570662        0       1.00000000       0.00107085       0.00014754       0.00168116       0.00185831      -0.00195964       0.00173593
H        1.40092866       0.81079205      31.22157455        0       1.00000000       0.00026056      -0.00009367       0.00024335       0.00091341      -0.00211199      -0.00057638
H        4.21115244       0.80893982      31.22322850        0       1.00000000      -0.00056397       0.00040202       0.00019070      -0.00134720      -0.00003683       0.00093535
H        4.21806638       2.43387849      29.00641817        0       1.00000000       0.00147189       0.00382208      -0.00086114      -0.00020599       0.00445976      -0.00392570
H        4.21297166       0.81154090      26.78898022        0       1.00000000       0.00094974       0.00020848       0.00084594      -0.00246715       0.00097110      -0.00148624
H        2.80566735       3.24417881      31.22136321        0       1.00000000       0.00011553      -0.00043983       0.00132095      -0.00170739       0.00092424      -0.00069036
H        1.39501166       2.43430430      29.00607085        0       1.00000000      -0.00004741      -0.00235146      -0.00134539       0.00052739       0.00230762      -0.00062129
23
Lattice="5.612310241546866 0.0 0.0 0.0 4.860403243099165 0.0 0.0 0.0 44.58243212332868" Properties=species:S:1:pos:R:3:tags:I:1:masses:R:1:momenta:R:3:forces:R:3 KEmax=29.729789663399384 iter=150611 volume=1216.1236359717223 set_wall=T ns_energy=-15.673730217950848 last_walked_iter_clone=150464 energy=-15.67374692631282 stress="0.0232678825824068 8.069310376863189e-07 3.889472190007504e-05 8.069310376863189e-07 0.02332808357057799 -1.4651120943949218e-05 3.889472190007504e-05 -1.4651120943949218e-05 0.009409154650827492" pbc="T T F"
H        1.40307756       0.81006721      20.00000000        3       1.00000000       0.00000000       0.00000000       0.00000000       0.00000000       0.00000000       0.00000000
H        4.20923268       0.81006721      20.00000000        3       1.00000000       0.00000000       0.00000000       0.00000000       0.00000000       0.00000000       0.00000000
H        0.00000000       3.24026883      20.00000000        3       1.00000000       0.00000000       0.00000000       0.00000000       0.00000000       0.00000000       0.00000000
H        2.80615512       3.24026883      20.00000000        3       1.00000000       0.00000000       0.00000000       0.00000000       0.00000000       0.00000000       0.00000000
H        0.00000000       1.62013441      22.29121606        2       1.00000000       0.00000000       0.00000000       0.00000000       0.00000000       0.00000000       0.00000000
H        2.80615512       1.62013441      22.29121606        2       1.00000000       0.00000000       0.00000000       0.00000000       0.00000000       0.00000000       0.00000000
H        1.40307756       4.05033604      22.29121606        2       1.00000000       0.00000000       0.00000000       0.00000000       0.00000000       0.00000000       0.00000000
H        4.20923268       4.05033604      22.29121606        2       1.00000000       0.00000000       0.00000000       0.00000000       0.00000000       0.00000000       0.00000000
H        0.00000000       0.00000000      24.58243212        1       1.00000000       0.00000000       0.00000000       0.00000000       0.00000000       0.00000000       0.00000000
H        2.80615512       0.00000000      24.58243212        1       1.00000000       0.00000000       0.00000000       0.00000000       0.00000000       0.00000000       0.00000000
H        1.40307756       2.43020162      24.58243212        1       1.00000000       0.00000000       0.00000000       0.00000000       0.00000000       0.00000000       0.00000000
H        4.20923268       2.43020162      24.58243212        1       1.00000000       0.00000000       0.00000000       0.00000000       0.00000000       0.00000000       0.00000000
H        0.00069784       3.24057604      26.78602116        0       1.00000000       0.00076435      -0.00005726      -0.00072939      -0.00117967      -0.00312450       0.00089106
H        0.00176032       4.84281997      29.00460662        0       1.00000000      -0.00054659       0.00111274      -0.00105192      -0.00155008      -0.00064434       0.00201731
H        2.80583903       3.23703626      26.79250250        0       1.00000000       0.00006955       0.00125346      -0.00237520       0.00447381       0.00043463      -0.00048527
H        1.40131505       0.81190755      26.79011346        0       1.00000000      -0.00112367       0.00060846      -0.00014210      -0.00103317      -0.00093454      -0.00150560
H        2.80706983       0.00862916      28.98621398        0       1.00000000      -0.00108883       0.00006509      -0.00053948       0.00185831      -0.00195964       0.00173593
H        1.40124898       0.80911098      31.22317515        0       1.00000000      -0.00062669      -0.00146294      -0.00017401       0.00091341      -0.00211199      -0.00057638
H        4.21191080       0.80893443      31.22330053        0       1.00000000       0.00123394      -0.00034305      -0.00084940      -0.00134720      -0.00003683       0.00093535
H        4.21907325       2.43423981      29.00604725        0       1.00000000       0.00037438       0.00124228       0.00015203      -0.00020599       0.00445976      -0.00392570
H        4.21270392       0.81049454      26.78890043        0       1.00000000      -0.00150095      -0.00007601       0.00001006      -0.00246715       0.00097110      -0.00148624
H        2.80700416       3.24472478      31.22109700        0       1.00000000      -0.00111726      -0.00068865       0.00260962      -0.00170739       0.00092424      -0.00069036
H        1.39527062       2.43415900      29.00728764        0       1.00000000       0.00100170       0.00015759       0.00061530       0.00052739       0.00230762      -0.00062129
23
Lattice="5.612310241546866 0.0 0.0 0.0 4.860403243099165 0.0 0.0 0.0 44.58243212332868" Properties=species:S:1:pos:R:3:tags:I:1:masses:R:1:momenta:R:3:forces:R:3 KEmax=29.729789663399384 iter=150611 volume=1216.1236359717223 set_wall=T ns_energy=-15.673730210405894 last_walked_iter_clone=150579 energy=-15.67374692631282 stress="0.0232678825824068 8.069310376863189e-07 3.889472190007504e-05 8.069310376863189e-07 0.02332808357057799 -1.4651120943949218e-05 3.889472190007504e-05 -1.4651120943949218e-05 0.009409154650827492" pbc="T T F"
H        1.40307756       0.81006721      20.00000000        3       1.00000000       0.00000000       0.00000000       0.00000000       0.00000000       0.00000000       0.00000000
H        4.20923268       0.81006721      20.00000000        3       1.00000000       0.00000000       0.00000000       0.00000000       0.00000000       0.00000000       0.00000000
H        0.00000000       3.24026883      20.00000000        3       1.00000000       0.00000000       0.00000000       0.00000000       0.00000000       0.00000000       0.00000000
H        2.80615512       3.24026883      20.00000000        3       1.00000000       0.00000000       0.00000000       0.00000000       0.00000000       0.00000000       0.00000000
H        0.00000000       1.62013441      22.29121606        2       1.00000000       0.00000000       0.00000000       0.00000000       0.00000000       0.00000000       0.00000000