23
Lattice="5.612310241546866 0.0 0.0 0.0 4.860403243099165 0.0 0.0 0.0 44.58243212332868" Properties=species:S:1:pos:R:3:tags:I:1:masses:R:1:momenta:R:3:forces:R:3 KEmax=29.729789663399384 iter=69261 volume=1216.1236359717223 set_wall=T ns_energy=-15.586298942614606 last_walked_iter_clone=69157 energy=-15.629269146979889 stress="0.023756813637713623 0.0006950042014420054 -0.0004468771412181449 0.0006950042014420054 0.023018493976901325 -5.9873656208707016e-05 -0.0004468771412181449 -5.9873656208707016e-05 0.012630814795146458" pbc="T T F"
H        1.40307756       0.81006721      20.00000000        3       1.00000000       0.00000000       0.00000000       0.00000000       0.00000000       0.00000000       0.00000000
H        4.20923268       0.81006721      20.00000000        3       1.00000000       0.00000000       0.00000000       0.00000000       0.00000000       0.00000000       0.00000000
H        0.00000000       3.24026883      20.00000000        3       1.00000000       0.00000000       0.00000000       0.00000000       0.00000000       0.00000000       0.00000000
H        2.80615512       3.24026883      20.00000000        3       1.00000000       0.00000000       0.00000000       0.00000000       0.00000000       0.00000000       0.00000000
H        0.00000000       1.62013441      22.29121606        2       1.00000000       0.00000000       0.00000000       0.00000000       0.00000000       0.00000000       0.00000000
H        2.80615512       1.62013441      22.29121606        2       1.00000000       0.00000000       0.00000000       0.00000000       0.00000000       0.00000000       0.00000000
H        1.40307756       4.05033604      22.29121606        2       1.00000000       0.00000000       0.00000000       0.00000000       0.00000000       0.00000000       0.00000000
H        4.20923268       4.05033604      22.29121606        2       1.00000000       0.00000000       0.00000000       0.00000000       0.00000000       0.00000000       0.00000000
H        0.00000000       0.00000000      24.58243212        1       1.00000000       0.00000000       0.00000000       0.00000000       0.00000000       0.00000000       0.00000000
H        2.80615512       0.00000000      24.58243212        1       1.00000000       0.00000000       0.00000000       0.00000000       0.00000000       0.00000000       0.00000000
H        1.40307756       2.43020162      24.58243212        1       1.00000000       0.00000000       0.00000000       0.00000000       0.00000000       0.00000000       0.00000000
H        4.20923268       2.43020162      24.58243212        1       1.00000000       0.00000000       0.00000000       0.00000000       0.00000000       0.00000000       0.00000000
H        5.63862304       3.27192003      26.81416190        0       1.00000000      -0.05382958       0.07859397      -0.02851709      -0.20259217       0.03138328       0.04963831
H        5.58151892       4.92181250      28.94684450        0       1.00000000       0.00970836       0.02694964      -0.02843029       0.02495068       0.06111456      -0.04322587
H        2.81452257       3.21513240      26.81502130        0       1.00000000       0.00298791       0.03395924      -0.02486733      -0.09176254      -0.11441055      -0.22992271
H        1.42476218       0.81455752      26.81603510        0       1.00000000      -0.03384399      -0.01365835      -0.06420251       0.09344857      -0.03363531       0.09035401
H        2.83203893       4.86532658      29.01396263        0       1.00000000      -0.01702558      -0.06423879       0.01057637      -0.02872104       0.15102793      -0.09221691
H        1.37914430       0.73831480      31.20430649        0       1.00000000       0.00305692       0.10406143      -0.03017385      -0.04446274       0.02970259      -0.07223723
H        4.17693358       0.68582514      31.21642949        0       1.00000000       0.07998201      -0.04404147      -0.03739726       0.05423643       0.02709199       0.02533481
H        4.17098285       2.47392901      29.03991870        0       1.00000000       0.07458195       0.03938092      -0.01772269       0.02065433      -0.02662345      -0.06281974
H        4.21920351       0.82619575      26.78487273        0       1.00000000       0.03879977       0.01050395      -0.08774281       0.06637893       0.00182141       0.13807953
H        2.69648334       3.17631231      31.26647821        0       1.00000000      -0.01644270       0.07733243      -0.09727483      -0.01049615      -0.00617514       0.06431288
H        1.35745796       2.48183337      29.04940142        0       1.00000000      -0.04116246       0.05109456      -0.03581069       0.08227465      -0.19382805      -0.08994273
23
Lattice="5.612310241546866 0.0 0.0 0.0 4.860403243099165 0.0 0.0 0.0 44.58243212332868" Properties=species:S:1:pos:R:3:tags:I:1:masses:R:1:momenta:R:3:forces:R:3 KEmax=29.729789663399384 iter=69261 volume=1216.1236359717223 set_wall=T ns_energy=-15.588724305781708 last_walked_iter_clone=69219 energy=-15.629269146979889 stress="0.023756813637713623 0.0006950042014420054 -0.0004468771412181449 0.0006950042014420054 0.023018493976901325 -5.9873656208707016e-05 -0.0004468771412181449 -5.9873656208707016e-05 0.012630814795146458" pbc="T T F"
H        1.40307756       0.81006721      20.00000000        3       1.00000000       0.00000000       0.00000000       0.00000000       0.00000000       0.00000000       0.00000000
H        4.20923268       0.81006721      20.00000000        3       1.00000000       0.00000000       0.00000000       0.00000000       0.00000000       0.00000000       0.00000000
H        0.00000000       3.24026883      20.00000000        3       1.00000000       0.00000000       0.00000000       0.00000000       0.00000000       0.00000000       0.00000000
H        2.80615512       3.24026883      20.00000000        3       1.00000000       0.00000000       0.00000000       0.00000000       0.00000000       0.00000000       0.00000000
H        0.00000000       1.62013441      22.29121606        2       1.00000000       0.00000000       0.00000000       0.00000000       0.00000000       0.00000000       0.00000000
H        2.80615512       1.62013441      22.29121606        2       1.00000000       0.00000000       0.00000000       0.00000000       0.00000000       0.00000000       0.00000000
H        1.40307756       4.05033604      22.29121606        2       1.00000000       0.00000000       0.00000000       0.00000000       0.00000000       0.00000000       0.00000000
H        4.20923268       4.05033604      22.29121606        2       1.00000000       0.00000000       0.00000000       0.00000000       0.00000000       0.00000000       0.00000000
H        0.00000000       0.00000000      24.58243212        1       1.00000000       0.00000000       0.00000000       0.00000000       0.00000000       0.00000000       0.00000000
H        2.80615512       0.00000000      24.58243212        1       1.00000000       0.00000000       0.00000000       0.00000000       0.00000000       0.00000000       0.00000000
H        1.40307756       2.43020162      24.58243212        1       1.00000000       0.00000000       0.00000000       0.00000000       0.00000000       0.00000000       0.00000000
H        4.20923268       2.43020162      24.58243212        1       1.00000000       0.00000000       0.00000000       0.00000000       0.00000000       0.00000000       0.00000000
H        5.60253319       3.22186043      26.78408684        0       1.00000000      -0.02058388       0.04227815       0.02880306      -0.20259217       0.03138328       0.04963831
H       -0.08434840       4.76840598      29.00781604        0       1.00000000      -0.05690269      -0.03384531      -0.01732085       0.02495068       0.06111456      -0.04322587
H        2.83469603       3.22737217      26.79655233        0       1.00000000      -0.04898186       0.03488997       0.00652889      -0.09176254      -0.11441055      -0.22992271
H        1.33331911       0.74695729      26.78545516        0       1.00000000       0.11715487      -0.03233994      -0.00876033       0.09344857      -0.03363531       0.09035401
H        2.74087541       4.82735404      28.99702613        0       1.00000000      -0.06833843      -0.02165086       0.04851318      -0.02872104       0.15102793      -0.09221691
H        1.33076155       0.79887198      31.27692004        0       1.00000000       0.05875174      -0.10497194       0.03210779      -0.04446274       0.02970259      -0.07223723
H        4.12384012       0.74760504      31.26252432        0       1.00000000      -0.03167089      -0.05582857       0.00810998       0.05423643       0.02709199       0.02533481
H        4.15611506       2.31129185      29.02629811        0       1.00000000      -0.13143521       0.00609326       0.00264795       0.02065433      -0.02662345      -0.06281974
H        4.20864773       0.80326211      26.78248646        0       1.00000000       0.01378917       0.08354749      -0.04152095       0.06637893       0.00182141       0.13807953
H        2.70903514       3.18871266      31.20494075        0       1.00000000       0.02290451      -0.05797519      -0.05537530      -0.01049615      -0.00617514       0.06431288
H        1.35423956       2.36289379      29.03010708        0       1.00000000      -0.01124386      -0.02754791       0.00650815       0.08227465      -0.19382805      -0.08994273
23
Lattice="5.612310241546866 0.0 0.0 0.0 4.860403243099165 0.0 0.0 0.0 44.58243212332868" Properties=species:S:1:pos:R:3:tags:I:1:masses:R:1:momenta:R:3:forces:R:3 KEmax=29.729789663399384 iter=69261 volume=1216.1236359717223 set_wall=T ns_energy=-15.587102161178608 last_walked_iter_clone=69151 energy=-15.629269146979889 stress="0.023756813637713623 0.0006950042014420054 -0.0004468771412181449 0.0006950042014420054 0.023018493976901325 -5.9873656208707016e-05 -0.0004468771412181449 -5.9873656208707016e-05 0.012630814795146458" pbc="T T F"
H        1.40307756       0.81006721      20.00000000        3       1.00000000       0.00000000       0.00000000       0.00000000       0.00000000       0.00000000       0.00000000
H        4.20923268       0.81006721      20.00000000        3       1.00000000       0.00000000       0.00000000       0.00000000       0.00000000       0.00000000       0.00000000
H        0.00000000       3.24026883      20.00000000        3       1.00000000       0.00000000       0.00000000       0.00000000       0.00000000       0.00000000       0.00000000
H        2.80615512       3.24026883      20.00000000        3       1.00000000       0.00000000       0.00000000       0.00000000       0.00000000       0.00000000       0.00000000
H        0.00000000       1.62013441      22.29121606        2       1.00000000       0.00000000       0.00000000       0.00000000       0.00000000       0.00000000       0.00000000
H        2.80615512       1.62013441      22.29121606        2       1.00000000       0.00000000       0.00000000       0.00000000       0.00000000       0.00000000       0.00000000
H        1.40307756       4.05033604      22.29121606        2       1.00000000       0.00000000       0.00000000       0.00000000       0.00000000       0.00000000       0.00000000
H        4.20923268       4.05033604      22.29121606        2       1.00000000       0.00000000       0.00000000       0.00000000       0.00000000       0.00000000       0.00000000
H        0.00000000       0.00000000      24.58243212        1       1.00000000       0.00000000       0.00000000       0.00000000       0.00000000       0.00000000       0.00000000
H        2.80615512       0.00000000      24.58243212        1       1.00000000       0.00000000       0.00000000       0.00000000       0.00000000       0.00000000       0.00000000
H        1.40307756       2.43020162      24.58243212        1       1.00000000       0.00000000       0.00000000       0.00000000       0.00000000       0.00000000       0.00000000
H        4.20923268       2.43020162      24.58243212        1       1.00000000       0.00000000       0.00000000       0.00000000       0.00000000       0.00000000       0.00000000
H        5.57477059       3.29836641      26.82335468        0       1.00000000      -0.05829063      -0.06297123      -0.05361181      -0.20259217       0.03138328       0.04963831
H        5.51302917       4.86157898      29.05922526        0       1.00000000      -0.03228932       0.00232088      -0.00456555       0.02495068       0.06111456      -0.04322587
H        2.77275333       3.26228345      26.77231296        0       1.00000000       0.02137544       0.04668192       0.00422972      -0.09176254      -0.11441055      -0.22992271
H        1.32183404       0.80977904      26.83127137        0       1.00000000      -0.01210610       0.03492737       0.04156360       0.09344857      -0.03363531       0.09035401
H        2.74980694      -0.00634495      29.02462989        0       1.00000000       0.05889072       0.08408865       0.02651247      -0.02872104       0.15102793      -0.09221691
H        1.34264182       0.66881030      31.21814480        0       1.00000000       0.01503216      -0.04570701       0.03612284      -0.04446274       0.02970259      -0.07223723
H        4.14776625       0.71382151      31.27745429        0       1.00000000      -0.03904095       0.07533295      -0.07690196       0.05423643       0.02709199       0.02533481
H        4.14543971       2.43372532      29.00997765        0       1.00000000      -0.03058358      -0.01659084       0.05736528       0.02065433      -0.02662345      -0.06281974
H        4.18155306       0.82865004      26.81021702        0       1.00000000       0.00549499       0.01843989      -0.05231500       0.06637893       0.00182141       0.13807953
H        2.66138390       3.12830438      31.26970732        0       1.00000000      -0.04959397       0.08076965      -0.00928592      -0.01049615      -0.00617514       0.06431288
H        1.30791094       2.45887681      29.03934126        0       1.00000000       0.04318727      -0.10613986      -0.01778308       0.08227465      -0.19382805      -0.08994273
23
Lattice="5.612310241546866 0.0 0.0 0.0 4.860403243099165 0.0 0.0 0.0 44.58243212332868" Properties=species:S:1:pos:R:3:tags:I:1:masses:R:1:momenta:R:3:forces:R:3 KEmax=29.729789663399384 iter=69261 volume=1216.1236359717223 set_wall=T ns_energy=-15.585943153346102 last_walked_iter_clone=68755 energy=-15.629269146979889 stress="0.023756813637713623 0.0006950042014420054 -0.0004468771412181449 0.0006950042014420054 0.023018493976901325 -5.9873656208707016e-05 -0.0004468771412181449 -5.9873656208707016e-05 0.012630814795146458" pbc="T T F"
H        1.40307756       0.81006721      20.00000000        3       1.00000000       0.00000000       0.00000000       0.00000000       0.00000000       0.00000000       0.00000000
H        4.20923268       0.81006721      20.00000000        3       1.00000000       0.00000000       0.00000000       0.00000000       0.00000000       0.00000000       0.00000000
H        0.00000000       3.24026883      20.00000000        3       1.00000000       0.00000000       0.00000000       0.00000000       0.00000000       0.00000000       0.00000000
H        2.80615512       3.24026883      20.00000000        3       1.00000000       0.00000000       0.00000000       0.00000000       0.00000000       0.00000000       0.00000000
H        0.00000000       1.62013441      22.29121606        2       1.00000000       0.00000000       0.00000000       0.00000000       0.00000000       0.00000000       0.00000000
H        2.80615512       1.62013441      22.29121606        2       1.00000000       0.00000000       0.00000000       0.00000000       0.00000000       0.00000000       0.00000000
H        1.40307756       4.05033604      22.29121606        2       1.00000000       0.00000000       0.00000000       0.00000000       0.00000000       0.00000000       0.00000000
H        4.20923268       4.05033604      22.29121606        2       1.00000000       0.00000000       0.00000000       0.00000000       0.00000000       0.00000000       0.00000000
H        0.00000000       0.00000000      24.58243212        1       1.00000000       0.00000000       0.00000000       0.00000000       0.00000000       0.00000000       0.00000000
H        2.80615512       0.00000000      24.58243212        1       1.00000000       0.00000000       0.00000000       0.00000000       0.00000000       0.00000000       0.00000000
H        1.40307756       2.43020162      24.58243212        1       1.00000000       0.00000000       0.00000000       0.00000000       0.00000000       0.00000000       0.00000000
H        4.20923268       2.43020162      24.58243212        1       1.00000000       0.00000000       0.00000000       0.00000000       0.00000000       0.00000000       0.00000000
H        5.51794352       3.18891196      26.82177481        0       1.00000000       0.06639279       0.02675153      -0.04285401      -0.20259217       0.03138328       0.04963831
H        5.52848207       4.74419571      29.07122189        0       1.00000000       0.01343183       0.03241773      -0.09881127       0.02495068       0.06111456      -0.04322587
H        2.73573040       3.18182689      26.76587710        0       1.00000000       0.06152146      -0.05460655      -0.00559646      -0.09176254      -0.11441055      -0.22992271
H        1.31743621       0.75291345      26.80614966        0       1.00000000      -0.00379455      -0.00035696       0.03216351       0.09344857      -0.03363531       0.09035401
H        2.72518647       4.76488932      29.03304865        0       1.00000000       0.05681793       0.08483205       0.11107089      -0.02872104       0.15102793      -0.09221691
H        5.54848414       1.57264383      31.19057672        0       1.00000000      -0.02913870      -0.04133568      -0.08464353      -0.04446274       0.02970259      -0.07223723
H        2.77727713       1.59111037      31.29015209        0       1.00000000      -0.00379011       0.06257132       0.02655483       0.05423643       0.02709199       0.02533481
H        4.11375510       2.36704330      29.01235933        0       1.00000000      -0.00132258      -0.01251213      -0.02899726       0.02065433      -0.02662345      -0.06281974
H        4.17932005       0.78701017      26.79397941        0       1.00000000       0.03386714      -0.05489249       0.06660634       0.06637893       0.00182141       0.13807953
H        1.38401452       3.98440832      31.29658927        0       1.00000000       0.04257722      -0.10798503       0.01524189      -0.01049615      -0.00617514       0.06431288
H        1.33582039       2.38637034      29.00795387        0       1.00000000      -0.02100936       0.01229603       0.01895627       0.08227465      -0.19382805      -0.08994273
23
Lattice="5.612310241546866 0.0 0.0 0.0 4.860403243099165 0.0 0.0 0.0 44.58243212332868" Properties=species:S:1:pos:R:3:tags:I:1:masses:R:1:momenta:R:3:forces:R:3 KEmax=29.729789663399384 iter=69261 volume=1216.1236359717223 set_wall=T ns_energy=-15.594813398094745 last_walked_iter_clone=69080 energy=-15.629269146979889 stress="0.023756813637713623 0.0006950042014420054 -0.0004468771412181449 0.0006950042014420054 0.023018493976901325 -5.9873656208707016e-05 -0.0004468771412181449 -5.9873656208707016e-05 0.012630814795146458" pbc="T T F"
H        1.40307756       0.81006721      20.00000000        3       1.00000000       0.00000000       0.00000000       0.00000000       0.00000000       0.00000000       0.00000000
H        4.20923268       0.81006721      20.00000000        3       1.00000000       0.00000000       0.00000000       0.00000000       0.00000000       0.00000000       0.00000000
H        0.00000000       3.24026883      20.00000000        3       1.00000000       0.00000000       0.00000000       0.00000000       0.00000000       0.00000000       0.00000000
H        2.80615512       3.24026883      20.00000000        3       1.00000000       0.00000000       0.00000000       0.00000000       0.00000000       0.00000000       0.00000000
H        0.00000000       1.62013441      22.29121606        2       1.00000000       0.00000000       0.00000000       0.00000000       0.00000000       0.00000000       0.00000000
H        2.80615512       1.62013441      22.29121606        2       1.00000000       0.00000000       0.00000000       0.00000000       0.00000000       0.00000000       0.00000000
H        1.40307756       4.05033604      22.29121606        2       1.00000000       0.00000000       0.00000000       0.00000000       0.00000000       0.00000000       0.00000000
H        4.20923268       4.05033604      22.29121606        2       1.00000000       0.00000000       0.00000000       0.00000000       0.00000000       0.00000000       0.00000000
H        0.00000000       0.00000000      24.58243212        1       1.00000000       0.00000000       0.00000000       0.00000000       0.00000000       0.00000000       0.00000000
H        2.80615512       0.00000000      24.58243212        1       1.00000000       0.00000000       0.00000000       0.00000000       0.00000000       0.00000000       0.00000000
H        1.40307756       2.43020162      24.58243212        1       1.00000000       0.00000000       0.00000000       0.00000000       0.00000000       0.00000000       0.00000000
H        4.20923268       2.43020162      24.58243212        1       1.00000000       0.00000000       0.00000000       0.00000000       0.00000000       0.00000000       0.00000000
H        0.01673497       3.21418048      26.78700209        0       1.00000000      -0.05732977       0.02689757       0.05786789      -0.20259217       0.03138328       0.04963831
H        5.62988285       4.79810299      29.06652888        0       1.00000000       0.03994588      -0.04402522       0.06328143       0.02495068       0.06111456      -0.04322587
H        2.83817326       3.21213160      26.76491575        0       1.00000000      -0.01866200       0.01966924      -0.10663989      -0.09176254      -0.11441055      -0.22992271
H        1.39504597       0.80784514      26.77849986        0       1.00000000       0.01094106       0.01196226       0.01607702       0.09344857      -0.03363531       0.09035401
H        2.81377211      -0.02641734      29.05585227        0       1.00000000       0.06553335       0.04432137       0.01728368      -0.02872104       0.15102793      -0.09221691
H        1.43931449       0.76992202      31.28249747        0       1.00000000       0.00188091       0.00415477       0.02499648      -0.04446274       0.02970259      -0.07223723
H        4.26645932       0.80031635      31.27144531        0       1.00000000       0.03092366       0.09416652      -0.07431171       0.05423643       0.02709199       0.02533481
H        4.25806391       2.35490779      28.98729860        0       1.00000000      -0.08893334       0.01788310      -0.04718321       0.02065433      -0.02662345      -0.06281974
H        4.22171055       0.77707083      26.80634856        0       1.00000000       0.00452551      -0.04331664       0.09801201       0.06637893       0.00182141       0.13807953
H        2.89806644       3.18531436      31.23027152        0       1.00000000       0.02528374      -0.06729602       0.06968664      -0.01049615      -0.00617514       0.06431288
H        1.39591582       2.40617400      29.06947886        0       1.00000000       0.00229403      -0.01367098      -0.07373445       0.08227465      -0.19382805      -0.08994273
23
Lattice="5.612310241546866 0.0 0.0 0.0 4.860403243099165 0.0 0.0 0.0 44.58243212332868" Properties=species:S:1:pos:R:3:tags:I:1:masses:R:1:momenta:R:3:forces:R:3 KEmax=29.729789663399384 iter=69261 volume=1216.1236359717223 set_wall=T ns_energy=-15.587912586387105 last_walked_iter_clone=69124 energy=-15.629269146979889 stress="0.023756813637713623 0.0006950042014420054 -0.0004468771412181449 0.0006950042014420054 0.023018493976901325 -5.9873656208707016e-05 -0.0004468771412181449 -5.9873656208707016e-05 0.012630814795146458" pbc="T T F"
H        1.40307756       0.81006721      20.00000000        3       1.00000000       0.00000000       0.00000000       0.00000000       0.00000000       0.00000000       0.00000000
H        4.20923268       0.81006721      20.00000000        3       1.00000000       0.00000000       0.00000000       0.00000000       0.00000000       0.00000000       0.00000000
H        0.00000000       3.24026883      20.00000000        3       1.00000000       0.00000000       0.00000000       0.00000000       0.00000000       0.00000000       0.00000000
H        2.80615512       3.24026883      20.00000000        3       1.00000000       0.00000000       0.00000000       0.00000000       0.00000000       0.00000000       0.00000000
H        0.00000000       1.62013441      22.29121606        2       1.00000000       0.00000000       0.00000000       0.00000000       0.00000000       0.00000000       0.00000000
H        2.80615512       1.62013441      22.29121606        2       1.00000000       0.00000000       0.00000000       0.00000000       0.00000000       0.00000000       0.00000000
H        1.40307756       4.05033604      22.29121606        2       1.00000000       0.00000000       0.00000000       0.00000000       0.00000000       0.00000000       0.00000000
H        4.20923268       4.05033604      22.29121606        2       1.00000000       0.00000000       0.00000000       0.00000000       0.00000000       0.00000000       0.00000000
H        0.00000000       0.00000000      24.58243212        1       1.00000000       0.00000000       0.00000000       0.00000000       0.00000000       0.00000000       0.00000000
H        2.80615512       0.00000000      24.58243212        1       1.00000000       0.00000000       0.00000000       0.00000000       0.00000000       0.00000000       0.00000000
H        1.40307756       2.43020162      24.58243212        1       1.00000000       0.00000000       0.00000000       0.00000000       0.00000000       0.00000000       0.00000000
H        4.20923268       2.43020162      24.58243212        1       1.00000000       0.00000000       0.00000000       0.00000000       0.00000000       0.00000000       0.00000000
H        5.66001829       3.24166333      26.76177487        0       1.00000000       0.09399508       0.08918193      -0.07831583      -0.20259217       0.03138328       0.04963831
H        0.02403052       4.73799066      29.01911226        0       1.00000000       0.08229013       0.00524180       0.09199600       0.02495068       0.06111456      -0.04322587
H        2.83200562       3.20768105      26.80588630        0       1.00000000      -0.01821023      -0.01188612       0.00665466      -0.09176254      -0.11441055      -0.22992271
H        1.42151988       0.81266414      26.81551529        0       1.00000000       0.00355965       0.01615357       0.05365059       0.09344857      -0.03363531       0.09035401
H        2.81343853       4.82350107      29.00032223        0       1.00000000      -0.00930807       0.07229508      -0.02255941      -0.02872104       0.15102793      -0.09221691
H        1.42869974       0.74420125      31.25577803        0       1.00000000      -0.02448907      -0.04398729       0.13390486      -0.04446274       0.02970259      -0.07223723
H        4.22981610       0.71203342      31.22517536        0       1.00000000       0.00212342      -0.05444190       0.04907178       0.05423643       0.02709199       0.02533481
H        4.25455632       2.39549068      28.99421942        0       1.00000000      -0.05261848      -0.00999635       0.00178812       0.02065433      -0.02662345      -0.06281974
H        4.24054007       0.82297370      26.76142595        0       1.00000000      -0.02716674       0.05704728       0.05993743       0.06637893       0.00182141       0.13807953
H        2.81645826       3.18348922      31.25333532        0       1.00000000       0.00074846      -0.04992602       0.02980770      -0.01049615      -0.00617514       0.06431288
H        1.37452624       2.39358542      29.06026296        0       1.00000000       0.11541416      -0.07373019      -0.00247986       0.08227465      -0.19382805      -0.08994273
23
Lattice="5.612310241546866 0.0 0.0 0.0 4.860403243099165 0.0 0.0 0.0 44.58243212332868" Properties=species:S:1:pos:R:3:tags:I:1:masses:R:1:momenta:R:3:forces:R:3 KEmax=29.729789663399384 iter=69261 volume=1216.1236359717223 set_wall=T ns_energy=-15.589789349675108 last_walked_iter_clone=69143 energy=-15.629269146979889 stress="0.023756813637713623 0.0006950042014420054 -0.0004468771412181449 0.0006950042014420054 0.023018493976901325 -5.9873656208707016e-05 -0.0004468771412181449 -5.9873656208707016e-05 0.012630814795146458" pbc="T T F"
H        1.40307756       0.81006721      20.00000000        3       1.00000000       0.00000000       0.00000000       0.00000000       0.00000000       0.00000000       0.00000000
H        4.20923268       0.81006721      20.00000000        3       1.00000000       0.00000000       0.00000000       0.00000000       0.00000000       0.00000000       0.00000000
H        0.00000000       3.24026883      20.00000000        3       1.00000000       0.00000000       0.00000000       0.00000000       0.00000000       0.00000000       0.00000000
H        2.80615512       3.24026883      20.00000000        3       1.00000000       0.00000000       0.00000000       0.00000000       0.00000000       0.00000000       0.00000000
H        0.00000000       1.62013441      22.29121606        2       1.00000000       0.00000000       0.00000000       0.00000000       0.00000000       0.00000000       0.00000000