23
Lattice="5.612310241546866 0.0 0.0 0.0 4.860403243099165 0.0 0.0 0.0 44.58243212332868" Properties=species:S:1:pos:R:3:tags:I:1:masses:R:1:momenta:R:3:forces:R:3 KEmax=29.729789663399384 iter=100407 volume=1216.1236359717223 set_wall=T ns_energy=-15.669673252550416 last_walked_iter_clone=100367 energy=-15.671168341666746 stress="0.023230442074948267 0.00013736657573873835 0.00013077806449551932 0.00013736657573873835 0.022994923936270152 0.0002485443810561247 0.00013077806449551932 0.0002485443810561247 0.008711539742845477" pbc="T T F"
H        1.40307756       0.81006721      20.00000000        3       1.00000000       0.00000000       0.00000000       0.00000000       0.00000000       0.00000000       0.00000000
H        4.20923268       0.81006721      20.00000000        3       1.00000000       0.00000000       0.00000000       0.00000000       0.00000000       0.00000000       0.00000000
H        0.00000000       3.24026883      20.00000000        3       1.00000000       0.00000000       0.00000000       0.00000000       0.00000000       0.00000000       0.00000000
H        2.80615512       3.24026883      20.00000000        3       1.00000000       0.00000000       0.00000000       0.00000000       0.00000000       0.00000000       0.00000000
H        0.00000000       1.62013441      22.29121606        2       1.00000000       0.00000000       0.00000000       0.00000000       0.00000000       0.00000000       0.00000000
H        2.80615512       1.62013441      22.29121606        2       1.00000000       0.00000000       0.00000000       0.00000000       0.00000000       0.00000000       0.00000000
H        1.40307756       4.05033604      22.29121606        2       1.00000000       0.00000000       0.00000000       0.00000000       0.00000000       0.00000000       0.00000000
H        4.20923268       4.05033604      22.29121606        2       1.00000000       0.00000000       0.00000000       0.00000000       0.00000000       0.00000000       0.00000000
H        0.00000000       0.00000000      24.58243212        1       1.00000000       0.00000000       0.00000000       0.00000000       0.00000000       0.00000000       0.00000000
H        2.80615512       0.00000000      24.58243212        1       1.00000000       0.00000000       0.00000000       0.00000000       0.00000000       0.00000000       0.00000000
H        1.40307756       2.43020162      24.58243212        1       1.00000000       0.00000000       0.00000000       0.00000000       0.00000000       0.00000000       0.00000000
H        4.20923268       2.43020162      24.58243212        1       1.00000000       0.00000000       0.00000000       0.00000000       0.00000000       0.00000000       0.00000000
H        5.61891729       3.25009572      26.79261524        0       1.00000000      -0.00997143      -0.00901984      -0.00448847      -0.03972409      -0.03232787       0.02578180
H       -0.00394877       4.83896086      29.01488050        0       1.00000000      -0.00442306       0.00270883       0.00087297       0.03215291       0.00396281       0.01099616
H        2.81873744       3.23573100      26.79960682        0       1.00000000      -0.00479070       0.00192546       0.00238531      -0.03224005      -0.01217088      -0.01916828
H        1.39668353       0.81858766      26.79580932        0       1.00000000      -0.00357562      -0.01147877      -0.00219771       0.04178371       0.02690002      -0.05663633
H        2.80992597       0.01378745      28.98728436        0       1.00000000      -0.00027991      -0.00467082       0.01588250      -0.00474148       0.01000648      -0.03216648
H        1.41408470       0.83401426      31.21744983        0       1.00000000      -0.01442445      -0.01316326       0.00758340      -0.00359738       0.00122842      -0.00438377
H        4.22687409       0.80755990      31.22540118        0       1.00000000      -0.00333019       0.00619601      -0.01510809      -0.02210835       0.00678318       0.04282396
H        4.22215122       2.44018519      29.00811540        0       1.00000000       0.01198592       0.01460855      -0.00166669       0.00545463       0.01867165      -0.01263602
H        4.20599552       0.81037562      26.79617389        0       1.00000000      -0.00787204       0.02235685      -0.01241017      -0.01209695      -0.00449580       0.02915026
H        2.80455175       3.25370895      31.21736651        0       1.00000000      -0.02316002      -0.00536268      -0.00335135       0.02009467      -0.02869782       0.01995490
H        1.39128516       2.43723049      29.01707556        0       1.00000000       0.01179292      -0.00058293       0.01495593      -0.01255248      -0.00799453       0.00253715
23
Lattice="5.612310241546866 0.0 0.0 0.0 4.860403243099165 0.0 0.0 0.0 44.58243212332868" Properties=species:S:1:pos:R:3:tags:I:1:masses:R:1:momenta:R:3:forces:R:3 KEmax=29.729789663399384 iter=100407 volume=1216.1236359717223 set_wall=T ns_energy=-15.669481846971733 last_walked_iter_clone=100069 energy=-15.671168341666746 stress="0.023230442074948267 0.00013736657573873835 0.00013077806449551932 0.00013736657573873835 0.022994923936270152 0.0002485443810561247 0.00013077806449551932 0.0002485443810561247 0.008711539742845477" pbc="T T F"
H        1.40307756       0.81006721      20.00000000        3       1.00000000       0.00000000       0.00000000       0.00000000       0.00000000       0.00000000       0.00000000
H        4.20923268       0.81006721      20.00000000        3       1.00000000       0.00000000       0.00000000       0.00000000       0.00000000       0.00000000       0.00000000
H        0.00000000       3.24026883      20.00000000        3       1.00000000       0.00000000       0.00000000       0.00000000       0.00000000       0.00000000       0.00000000
H        2.80615512       3.24026883      20.00000000        3       1.00000000       0.00000000       0.00000000       0.00000000       0.00000000       0.00000000       0.00000000
H        0.00000000       1.62013441      22.29121606        2       1.00000000       0.00000000       0.00000000       0.00000000       0.00000000       0.00000000       0.00000000
H        2.80615512       1.62013441      22.29121606        2       1.00000000       0.00000000       0.00000000       0.00000000       0.00000000       0.00000000       0.00000000
H        1.40307756       4.05033604      22.29121606        2       1.00000000       0.00000000       0.00000000       0.00000000       0.00000000       0.00000000       0.00000000
H        4.20923268       4.05033604      22.29121606        2       1.00000000       0.00000000       0.00000000       0.00000000       0.00000000       0.00000000       0.00000000
H        0.00000000       0.00000000      24.58243212        1       1.00000000       0.00000000       0.00000000       0.00000000       0.00000000       0.00000000       0.00000000
H        2.80615512       0.00000000      24.58243212        1       1.00000000       0.00000000       0.00000000       0.00000000       0.00000000       0.00000000       0.00000000
H        1.40307756       2.43020162      24.58243212        1       1.00000000       0.00000000       0.00000000       0.00000000       0.00000000       0.00000000       0.00000000
H        4.20923268       2.43020162      24.58243212        1       1.00000000       0.00000000       0.00000000       0.00000000       0.00000000       0.00000000       0.00000000
H       -0.02149016       3.24654020      26.79495985        0       1.00000000       0.00432045      -0.01426927       0.02457160      -0.03972409      -0.03232787       0.02578180
H        5.60835080       4.84394523      29.00075860        0       1.00000000      -0.02006961      -0.01492234      -0.00163421       0.03215291       0.00396281       0.01099616
H        2.79731271       3.23268135      26.79445054        0       1.00000000      -0.00355144      -0.00507783       0.00515287      -0.03224005      -0.01217088      -0.01916828
H        1.38899088       0.81423370      26.78725333        0       1.00000000       0.00450767       0.00940566       0.00762794       0.04178371       0.02690002      -0.05663633
H        2.80170140       0.00771448      28.97427805        0       1.00000000      -0.00339955      -0.00449003       0.01672293      -0.00474148       0.01000648      -0.03216648
H        1.39990267       0.80113085      31.21545919        0       1.00000000      -0.00353920       0.00803789       0.00455842      -0.00359738       0.00122842      -0.00438377
H        4.20792250       0.81425948      31.23474192        0       1.00000000       0.00081834      -0.01213970      -0.00396052      -0.02210835       0.00678318       0.04282396
H        4.22444676       2.42489112      29.00965810        0       1.00000000       0.00499845       0.02334854      -0.00088517       0.00545463       0.01867165      -0.01263602
H        4.20793838       0.81614830      26.78287486        0       1.00000000      -0.00479333      -0.00671286      -0.00596913      -0.01209695      -0.00449580       0.02915026
H        2.80265597       3.25599252      31.22029022        0       1.00000000       0.01378686      -0.01344152      -0.00519589       0.02009467      -0.02869782       0.01995490
H        1.38443109       2.43534679      29.01223536        0       1.00000000       0.00799498      -0.00075539      -0.01749245      -0.01255248      -0.00799453       0.00253715
23
Lattice="5.612310241546866 0.0 0.0 0.0 4.860403243099165 0.0 0.0 0.0 44.58243212332868" Properties=species:S:1:pos:R:3:tags:I:1:masses:R:1:momenta:R:3:forces:R:3 KEmax=29.729789663399384 iter=100407 volume=1216.1236359717223 set_wall=T ns_energy=-15.669520509483855 last_walked_iter_clone=100382 energy=-15.671168341666746 stress="0.023230442074948267 0.00013736657573873835 0.00013077806449551932 0.00013736657573873835 0.022994923936270152 0.0002485443810561247 0.00013077806449551932 0.0002485443810561247 0.008711539742845477" pbc="T T F"
H        1.40307756       0.81006721      20.00000000        3       1.00000000       0.00000000       0.00000000       0.00000000       0.00000000       0.00000000       0.00000000
H        4.20923268       0.81006721      20.00000000        3       1.00000000       0.00000000       0.00000000       0.00000000       0.00000000       0.00000000       0.00000000
H        0.00000000       3.24026883      20.00000000        3       1.00000000       0.00000000       0.00000000       0.00000000       0.00000000       0.00000000       0.00000000
H        2.80615512       3.24026883      20.00000000        3       1.00000000       0.00000000       0.00000000       0.00000000       0.00000000       0.00000000       0.00000000
H        0.00000000       1.62013441      22.29121606        2       1.00000000       0.00000000       0.00000000       0.00000000       0.00000000       0.00000000       0.00000000
H        2.80615512       1.62013441      22.29121606        2       1.00000000       0.00000000       0.00000000       0.00000000       0.00000000       0.00000000       0.00000000
H        1.40307756       4.05033604      22.29121606        2       1.00000000       0.00000000       0.00000000       0.00000000       0.00000000       0.00000000       0.00000000
H        4.20923268       4.05033604      22.29121606        2       1.00000000       0.00000000       0.00000000       0.00000000       0.00000000       0.00000000       0.00000000
H        0.00000000       0.00000000      24.58243212        1       1.00000000       0.00000000       0.00000000       0.00000000       0.00000000       0.00000000       0.00000000
H        2.80615512       0.00000000      24.58243212        1       1.00000000       0.00000000       0.00000000       0.00000000       0.00000000       0.00000000       0.00000000
H        1.40307756       2.43020162      24.58243212        1       1.00000000       0.00000000       0.00000000       0.00000000       0.00000000       0.00000000       0.00000000
H        4.20923268       2.43020162      24.58243212        1       1.00000000       0.00000000       0.00000000       0.00000000       0.00000000       0.00000000       0.00000000
H        0.00005948       3.24212481      26.79131638        0       1.00000000      -0.00053717      -0.01095882      -0.00475038      -0.03972409      -0.03232787       0.02578180
H        0.00235685       0.00142952      29.00466972        0       1.00000000      -0.00614661      -0.01628535       0.00576152       0.03215291       0.00396281       0.01099616
H        2.80427675       3.24464166      26.79260785        0       1.00000000      -0.00587604      -0.00642250      -0.00177331      -0.03224005      -0.01217088      -0.01916828
H        1.40169046       0.82274312      26.79664210        0       1.00000000      -0.01581497      -0.01447051      -0.00983325       0.04178371       0.02690002      -0.05663633
H        2.80596857       0.02721548      29.00439452        0       1.00000000       0.00008114      -0.01437696      -0.00596591      -0.00474148       0.01000648      -0.03216648
H        1.40913389       0.84365550      31.22036481        0       1.00000000      -0.00483334       0.00679271      -0.01910612      -0.00359738       0.00122842      -0.00438377
H        4.21835040       0.84983236      31.23843888        0       1.00000000      -0.01020491       0.00107901       0.01379011      -0.02210835       0.00678318       0.04282396
H        4.21474549       2.45386491      29.02093342        0       1.00000000      -0.01557631      -0.00813106       0.00473095       0.00545463       0.01867165      -0.01263602
H        4.21638244       0.82126136      26.80658803        0       1.00000000      -0.01502644       0.00663205       0.00953821      -0.01209695      -0.00449580       0.02915026
H        2.80829506       3.27794697      31.23175470        0       1.00000000      -0.01821186       0.00783899       0.00232046       0.02009467      -0.02869782       0.01995490
H        1.38837918       2.45498981      29.00712272        0       1.00000000      -0.01741039       0.00832299       0.01266208      -0.01255248      -0.00799453       0.00253715
23
Lattice="5.612310241546866 0.0 0.0 0.0 4.860403243099165 0.0 0.0 0.0 44.58243212332868" Properties=species:S:1:pos:R:3:tags:I:1:masses:R:1:momenta:R:3:forces:R:3 KEmax=29.729789663399384 iter=100407 volume=1216.1236359717223 set_wall=T ns_energy=-15.669508302407822 last_walked_iter_clone=100340 energy=-15.671168341666746 stress="0.023230442074948267 0.00013736657573873835 0.00013077806449551932 0.00013736657573873835 0.022994923936270152 0.0002485443810561247 0.00013077806449551932 0.0002485443810561247 0.008711539742845477" pbc="T T F"
H        1.40307756       0.81006721      20.00000000        3       1.00000000       0.00000000       0.00000000       0.00000000       0.00000000       0.00000000       0.00000000
H        4.20923268       0.81006721      20.00000000        3       1.00000000       0.00000000       0.00000000       0.00000000       0.00000000       0.00000000       0.00000000
H        0.00000000       3.24026883      20.00000000        3       1.00000000       0.00000000       0.00000000       0.00000000       0.00000000       0.00000000       0.00000000
H        2.80615512       3.24026883      20.00000000        3       1.00000000       0.00000000       0.00000000       0.00000000       0.00000000       0.00000000       0.00000000
H        0.00000000       1.62013441      22.29121606        2       1.00000000       0.00000000       0.00000000       0.00000000       0.00000000       0.00000000       0.00000000
H        2.80615512       1.62013441      22.29121606        2       1.00000000       0.00000000       0.00000000       0.00000000       0.00000000       0.00000000       0.00000000
H        1.40307756       4.05033604      22.29121606        2       1.00000000       0.00000000       0.00000000       0.00000000       0.00000000       0.00000000       0.00000000
H        4.20923268       4.05033604      22.29121606        2       1.00000000       0.00000000       0.00000000       0.00000000       0.00000000       0.00000000       0.00000000
H        0.00000000       0.00000000      24.58243212        1       1.00000000       0.00000000       0.00000000       0.00000000       0.00000000       0.00000000       0.00000000
H        2.80615512       0.00000000      24.58243212        1       1.00000000       0.00000000       0.00000000       0.00000000       0.00000000       0.00000000       0.00000000
H        1.40307756       2.43020162      24.58243212        1       1.00000000       0.00000000       0.00000000       0.00000000       0.00000000       0.00000000       0.00000000
H        4.20923268       2.43020162      24.58243212        1       1.00000000       0.00000000       0.00000000       0.00000000       0.00000000       0.00000000       0.00000000
H        5.60720970       3.24356055      26.78676614        0       1.00000000      -0.00507425       0.00848145      -0.01245760      -0.03972409      -0.03232787       0.02578180
H        5.60452065       4.82697273      29.01168826        0       1.00000000       0.01267070      -0.00526495       0.00180219       0.03215291       0.00396281       0.01099616
H        2.80749700       3.24250346      26.79097732        0       1.00000000       0.01301606      -0.00264237      -0.00454243      -0.03224005      -0.01217088      -0.01916828
H        1.39956004       0.81402267      26.78753356        0       1.00000000       0.02560019       0.00961904      -0.00573214       0.04178371       0.02690002      -0.05663633
H        2.79117608       0.01123889      28.99446048        0       1.00000000      -0.00342086       0.01022837      -0.01947008      -0.00474148       0.01000648      -0.03216648
H        1.40502643       0.81337006      31.21968911        0       1.00000000       0.02185269      -0.00850852       0.00890484      -0.00359738       0.00122842      -0.00438377
H        4.21208073       0.81756540      31.21621001        0       1.00000000      -0.00692215      -0.01390481      -0.00457903      -0.02210835       0.00678318       0.04282396
H        4.20433262       2.43282767      29.00311329        0       1.00000000      -0.00044221      -0.01033492       0.00843316       0.00545463       0.01867165      -0.01263602
H        4.21203061       0.80736473      26.78543060        0       1.00000000      -0.01057958       0.01559560      -0.01519433      -0.01209695      -0.00449580       0.02915026
H        2.82549482       3.24813678      31.22859505        0       1.00000000       0.00710208       0.00285410       0.00902447       0.02009467      -0.02869782       0.01995490
H        1.38769411       2.44610243      29.01702562        0       1.00000000       0.00564214      -0.00728335      -0.00456905      -0.01255248      -0.00799453       0.00253715
23
Lattice="5.612310241546866 0.0 0.0 0.0 4.860403243099165 0.0 0.0 0.0 44.58243212332868" Properties=species:S:1:pos:R:3:tags:I:1:masses:R:1:momenta:R:3:forces:R:3 KEmax=29.729789663399384 iter=100407 volume=1216.1236359717223 set_wall=T ns_energy=-15.669480153740826 last_walked_iter_clone=100218 energy=-15.671168341666746 stress="0.023230442074948267 0.00013736657573873835 0.00013077806449551932 0.00013736657573873835 0.022994923936270152 0.0002485443810561247 0.00013077806449551932 0.0002485443810561247 0.008711539742845477" pbc="T T F"
H        1.40307756       0.81006721      20.00000000        3       1.00000000       0.00000000       0.00000000       0.00000000       0.00000000       0.00000000       0.00000000
H        4.20923268       0.81006721      20.00000000        3       1.00000000       0.00000000       0.00000000       0.00000000       0.00000000       0.00000000       0.00000000
H        0.00000000       3.24026883      20.00000000        3       1.00000000       0.00000000       0.00000000       0.00000000       0.00000000       0.00000000       0.00000000
H        2.80615512       3.24026883      20.00000000        3       1.00000000       0.00000000       0.00000000       0.00000000       0.00000000       0.00000000       0.00000000
H        0.00000000       1.62013441      22.29121606        2       1.00000000       0.00000000       0.00000000       0.00000000       0.00000000       0.00000000       0.00000000
H        2.80615512       1.62013441      22.29121606        2       1.00000000       0.00000000       0.00000000       0.00000000       0.00000000       0.00000000       0.00000000
H        1.40307756       4.05033604      22.29121606        2       1.00000000       0.00000000       0.00000000       0.00000000       0.00000000       0.00000000       0.00000000
H        4.20923268       4.05033604      22.29121606        2       1.00000000       0.00000000       0.00000000       0.00000000       0.00000000       0.00000000       0.00000000
H        0.00000000       0.00000000      24.58243212        1       1.00000000       0.00000000       0.00000000       0.00000000       0.00000000       0.00000000       0.00000000
H        2.80615512       0.00000000      24.58243212        1       1.00000000       0.00000000       0.00000000       0.00000000       0.00000000       0.00000000       0.00000000
H        1.40307756       2.43020162      24.58243212        1       1.00000000       0.00000000       0.00000000       0.00000000       0.00000000       0.00000000       0.00000000
H        4.20923268       2.43020162      24.58243212        1       1.00000000       0.00000000       0.00000000       0.00000000       0.00000000       0.00000000       0.00000000
H       -0.02488766       3.24281489      26.78297990        0       1.00000000      -0.01825359      -0.00438290      -0.00400714      -0.03972409      -0.03232787       0.02578180
H        5.59373301       4.83401153      29.00379884        0       1.00000000      -0.00161284      -0.03005137      -0.00798544       0.03215291       0.00396281       0.01099616
H        2.78292566       3.22935242      26.78558836        0       1.00000000      -0.00586358      -0.00108887      -0.00332062      -0.03224005      -0.01217088      -0.01916828
H        1.39280985       0.80642768      26.78289695        0       1.00000000      -0.00407969       0.01130319      -0.00807282       0.04178371       0.02690002      -0.05663633
H        2.79103503      -0.00258480      28.98629264        0       1.00000000       0.01588796       0.01105549       0.02206902      -0.00474148       0.01000648      -0.03216648
H        1.37816920       0.82328993      31.22330930        0       1.00000000       0.00369753       0.00735223      -0.01052783      -0.00359738       0.00122842      -0.00438377
H        4.18392092       0.82016514      31.22640809        0       1.00000000      -0.00594550      -0.00709198       0.01984133      -0.02210835       0.00678318       0.04282396
H        4.19412502       2.43470977      29.00799356        0       1.00000000      -0.00121184      -0.01110408      -0.00588209       0.00545463       0.01867165      -0.01263602
H        4.19573738       0.81091864      26.79097492        0       1.00000000      -0.02140538      -0.00368229       0.00401557      -0.01209695      -0.00449580       0.02915026
H        2.78133803       3.24257369      31.21955792        0       1.00000000       0.00717881      -0.00206683       0.01217718       0.02009467      -0.02869782       0.01995490
H        1.37352031       2.42319216      28.99126668        0       1.00000000      -0.00573049      -0.00632782      -0.02299130      -0.01255248      -0.00799453       0.00253715
23
Lattice="5.612310241546866 0.0 0.0 0.0 4.860403243099165 0.0 0.0 0.0 44.58243212332868" Properties=species:S:1:pos:R:3:tags:I:1:masses:R:1:momenta:R:3:forces:R:3 KEmax=29.729789663399384 iter=100407 volume=1216.1236359717223 set_wall=T ns_energy=-15.669566890680755 last_walked_iter_clone=99993 energy=-15.671168341666746 stress="0.023230442074948267 0.00013736657573873835 0.00013077806449551932 0.00013736657573873835 0.022994923936270152 0.0002485443810561247 0.00013077806449551932 0.0002485443810561247 0.008711539742845477" pbc="T T F"
H        1.40307756       0.81006721      20.00000000        3       1.00000000       0.00000000       0.00000000       0.00000000       0.00000000       0.00000000       0.00000000
H        4.20923268       0.81006721      20.00000000        3       1.00000000       0.00000000       0.00000000       0.00000000       0.00000000       0.00000000       0.00000000
H        0.00000000       3.24026883      20.00000000        3       1.00000000       0.00000000       0.00000000       0.00000000       0.00000000       0.00000000       0.00000000
H        2.80615512       3.24026883      20.00000000        3       1.00000000       0.00000000       0.00000000       0.00000000       0.00000000       0.00000000       0.00000000
H        0.00000000       1.62013441      22.29121606        2       1.00000000       0.00000000       0.00000000       0.00000000       0.00000000       0.00000000       0.00000000
H        2.80615512       1.62013441      22.29121606        2       1.00000000       0.00000000       0.00000000       0.00000000       0.00000000       0.00000000       0.00000000
H        1.40307756       4.05033604      22.29121606        2       1.00000000       0.00000000       0.00000000       0.00000000       0.00000000       0.00000000       0.00000000
H        4.20923268       4.05033604      22.29121606        2       1.00000000       0.00000000       0.00000000       0.00000000       0.00000000       0.00000000       0.00000000
H        0.00000000       0.00000000      24.58243212        1       1.00000000       0.00000000       0.00000000       0.00000000       0.00000000       0.00000000       0.00000000
H        2.80615512       0.00000000      24.58243212        1       1.00000000       0.00000000       0.00000000       0.00000000       0.00000000       0.00000000       0.00000000
H        1.40307756       2.43020162      24.58243212        1       1.00000000       0.00000000       0.00000000       0.00000000       0.00000000       0.00000000       0.00000000
H        4.20923268       2.43020162      24.58243212        1       1.00000000       0.00000000       0.00000000       0.00000000       0.00000000       0.00000000       0.00000000
H        0.02178457       3.24888888      26.79307497        0       1.00000000       0.00868264      -0.00607276       0.00801873      -0.03972409      -0.03232787       0.02578180
H        0.01090109       4.84852424      29.00910371        0       1.00000000       0.01123626      -0.00912227       0.00190247       0.03215291       0.00396281       0.01099616
H        2.81460023       3.24360753      26.79544760        0       1.00000000      -0.01913793      -0.00592254       0.01425550      -0.03224005      -0.01217088      -0.01916828
H        1.41157770       0.82627494      26.79534914        0       1.00000000       0.00379062       0.01536276       0.01450340       0.04178371       0.02690002      -0.05663633
H        2.82127927       0.00999932      28.98667591        0       1.00000000      -0.00053263      -0.00226128       0.01010222      -0.00474148       0.01000648      -0.03216648
H        1.40152490       0.79758618      31.23039922        0       1.00000000      -0.00242533       0.00491832      -0.00726643      -0.00359738       0.00122842      -0.00438377
H        4.21951324       0.80979097      31.23348296        0       1.00000000      -0.02131408      -0.00554270       0.01013607      -0.02210835       0.00678318       0.04282396
H        4.22857701       2.43035066      29.01350856        0       1.00000000       0.00168531      -0.01015095      -0.00115506       0.00545463       0.01867165      -0.01263602
H        4.21438864       0.81666229      26.79129810        0       1.00000000       0.02091405       0.03370500      -0.00010312      -0.01209695      -0.00449580       0.02915026
H        2.80758898       3.23944247      31.22128107        0       1.00000000      -0.01740002       0.01327131       0.00366607       0.02009467      -0.02869782       0.01995490
H        1.39598487       2.43225503      29.01618735        0       1.00000000      -0.01509832      -0.01033375      -0.01301041      -0.01255248      -0.00799453       0.00253715
23
Lattice="5.612310241546866 0.0 0.0 0.0 4.860403243099165 0.0 0.0 0.0 44.58243212332868" Properties=species:S:1:pos:R:3:tags:I:1:masses:R:1:momenta:R:3:forces:R:3 KEmax=29.729789663399384 iter=100407 volume=1216.1236359717223 set_wall=T ns_energy=-15.669901644104407 last_walked_iter_clone=100067 energy=-15.671168341666746 stress="0.023230442074948267 0.00013736657573873835 0.00013077806449551932 0.00013736657573873835 0.022994923936270152 0.0002485443810561247 0.00013077806449551932 0.0002485443810561247 0.008711539742845477" pbc="T T F"
H        1.40307756       0.81006721      20.00000000        3       1.00000000       0.00000000       0.00000000       0.00000000       0.00000000       0.00000000       0.00000000
H        4.20923268       0.81006721      20.00000000        3       1.00000000       0.00000000       0.00000000       0.00000000       0.00000000       0.00000000       0.00000000
H        0.00000000       3.24026883      20.00000000        3       1.00000000       0.00000000       0.00000000       0.00000000       0.00000000       0.00000000       0.00000000
H        2.80615512       3.24026883      20.00000000        3       1.00000000       0.00000000       0.00000000       0.00000000       0.00000000       0.00000000       0.00000000
H        0.00000000       1.62013441      22.29121606        2       1.00000000       0.00000000       0.00000000       0.00000000       0.00000000       0.00000000       0.00000000