23
Lattice="5.612310241546866 0.0 0.0 0.0 4.860403243099165 0.0 0.0 0.0 44.58243212332868" Properties=species:S:1:pos:R:3:tags:I:1:masses:R:1:momenta:R:3:forces:R:3 KEmax=29.729789663399384 iter=36600 volume=1216.1236359717223 set_wall=T ns_energy=-13.919088537162903 last_walked_iter_clone=36422 energy=-14.961853563175445 stress="0.01761570231102615 -0.0007185836957236314 0.0017041155634449294 -0.0007185836957236314 0.011574161156890972 0.004787024491843118 0.0017041155634449294 0.004787024491843118 0.003306667873845682" pbc="T T F"
H        1.40307756       0.81006721      20.00000000        3       1.00000000       0.00000000       0.00000000       0.00000000       0.00000000       0.00000000       0.00000000
H        4.20923268       0.81006721      20.00000000        3       1.00000000       0.00000000       0.00000000       0.00000000       0.00000000       0.00000000       0.00000000
H        0.00000000       3.24026883      20.00000000        3       1.00000000       0.00000000       0.00000000       0.00000000       0.00000000       0.00000000       0.00000000
H        2.80615512       3.24026883      20.00000000        3       1.00000000       0.00000000       0.00000000       0.00000000       0.00000000       0.00000000       0.00000000
H        0.00000000       1.62013441      22.29121606        2       1.00000000       0.00000000       0.00000000       0.00000000       0.00000000       0.00000000       0.00000000
H        2.80615512       1.62013441      22.29121606        2       1.00000000       0.00000000       0.00000000       0.00000000       0.00000000       0.00000000       0.00000000
H        1.40307756       4.05033604      22.29121606        2       1.00000000       0.00000000       0.00000000       0.00000000       0.00000000       0.00000000       0.00000000
H        4.20923268       4.05033604      22.29121606        2       1.00000000       0.00000000       0.00000000       0.00000000       0.00000000       0.00000000       0.00000000
H        0.00000000       0.00000000      24.58243212        1       1.00000000       0.00000000       0.00000000       0.00000000       0.00000000       0.00000000       0.00000000
H        2.80615512       0.00000000      24.58243212        1       1.00000000       0.00000000       0.00000000       0.00000000       0.00000000       0.00000000       0.00000000
H        1.40307756       2.43020162      24.58243212        1       1.00000000       0.00000000       0.00000000       0.00000000       0.00000000       0.00000000       0.00000000
H        4.20923268       2.43020162      24.58243212        1       1.00000000       0.00000000       0.00000000       0.00000000       0.00000000       0.00000000       0.00000000
H        3.85365506       3.11717177      31.86676629        0       1.00000000       0.16925044      -0.05959031       0.14439133      -0.23523565       0.60168830      -0.82663534
H        3.85085797       0.56337138      29.22359307        0       1.00000000      -0.08169386      -0.50516025      -0.09636122       0.02731732      -0.30814280       0.74438402
H        2.54265752       1.47345934      26.86663119        0       1.00000000      -0.32598317      -0.16470488      -0.02655962       0.06253447       0.26520351      -0.00865729
H        5.29571569       1.31931206      26.91086582        0       1.00000000       0.06368561       0.04119381      -0.03394655      -0.00595099      -0.48038816      -0.57542148
H        2.76387070       2.89763524      29.35400725        0       1.00000000      -0.02903993       0.17785918       0.27974380       0.32575031       0.15160126       0.06106849
H        0.91918333       3.73254686      26.77748167        0       1.00000000      -0.57991346       0.09293232       0.12884101      -0.19152646      -0.10139514      -0.29383738
H        2.53003900       0.82192737      31.65726066        0       1.00000000      -0.33638212       0.04507451       0.14385067       0.08174020      -0.06777035      -0.30331031
H        1.34789030       0.28286480      28.97449643        0       1.00000000      -0.15125921      -0.11742605      -0.07046244      -0.44770315      -0.05280869       0.27106804
H        5.54543115       2.91748323      29.25411649        0       1.00000000       0.13121372      -0.25278870       0.03459645       0.52571422      -0.74623173      -0.11407331
H        1.22625778       3.23645492      32.13743942        0       1.00000000       0.12732638      -0.08866522      -0.06338952      -0.66763505       0.10682863       0.30396419
H        3.77374225       3.96608873      27.02377706        0       1.00000000      -0.13325282      -0.06161211      -0.58646890       0.47745180       0.07281912       0.53655840
23
Lattice="5.612310241546866 0.0 0.0 0.0 4.860403243099165 0.0 0.0 0.0 44.58243212332868" Properties=species:S:1:pos:R:3:tags:I:1:masses:R:1:momenta:R:3:forces:R:3 KEmax=29.729789663399384 iter=36600 volume=1216.1236359717223 set_wall=T ns_energy=-13.876856186632295 last_walked_iter_clone=36573 energy=-14.961853563175445 stress="0.01761570231102615 -0.0007185836957236314 0.0017041155634449294 -0.0007185836957236314 0.011574161156890972 0.004787024491843118 0.0017041155634449294 0.004787024491843118 0.003306667873845682" pbc="T T F"
H        1.40307756       0.81006721      20.00000000        3       1.00000000       0.00000000       0.00000000       0.00000000       0.00000000       0.00000000       0.00000000
H        4.20923268       0.81006721      20.00000000        3       1.00000000       0.00000000       0.00000000       0.00000000       0.00000000       0.00000000       0.00000000
H        0.00000000       3.24026883      20.00000000        3       1.00000000       0.00000000       0.00000000       0.00000000       0.00000000       0.00000000       0.00000000
H        2.80615512       3.24026883      20.00000000        3       1.00000000       0.00000000       0.00000000       0.00000000       0.00000000       0.00000000       0.00000000
H        0.00000000       1.62013441      22.29121606        2       1.00000000       0.00000000       0.00000000       0.00000000       0.00000000       0.00000000       0.00000000
H        2.80615512       1.62013441      22.29121606        2       1.00000000       0.00000000       0.00000000       0.00000000       0.00000000       0.00000000       0.00000000
H        1.40307756       4.05033604      22.29121606        2       1.00000000       0.00000000       0.00000000       0.00000000       0.00000000       0.00000000       0.00000000
H        4.20923268       4.05033604      22.29121606        2       1.00000000       0.00000000       0.00000000       0.00000000       0.00000000       0.00000000       0.00000000
H        0.00000000       0.00000000      24.58243212        1       1.00000000       0.00000000       0.00000000       0.00000000       0.00000000       0.00000000       0.00000000
H        2.80615512       0.00000000      24.58243212        1       1.00000000       0.00000000       0.00000000       0.00000000       0.00000000       0.00000000       0.00000000
H        1.40307756       2.43020162      24.58243212        1       1.00000000       0.00000000       0.00000000       0.00000000       0.00000000       0.00000000       0.00000000
H        4.20923268       2.43020162      24.58243212        1       1.00000000       0.00000000       0.00000000       0.00000000       0.00000000       0.00000000       0.00000000
H        0.18072677       1.71189328      26.73884981        0       1.00000000      -0.12810706      -0.06869590       0.41934549      -0.23523565       0.60168830      -0.82663534
H        3.45666380       2.67213848      29.00644965        0       1.00000000      -0.29960170       0.10175316       0.45038128       0.02731732      -0.30814280       0.74438402
H        3.00831721       1.32933699      26.83855753        0       1.00000000      -0.25858925       0.10437387       0.07010257       0.06253447       0.26520351      -0.00865729
H        1.63276233       4.01193965      26.85984001        0       1.00000000       0.05312899       0.05560324      -0.10450939      -0.00595099      -0.48038816      -0.57542148
H        0.79346364       2.82584381      29.23977561        0       1.00000000      -0.44216461      -0.16774301      -0.10795419       0.32575031       0.15160126       0.06106849
H        0.75217715       1.39403586      31.42034118        0       1.00000000       0.01992042      -0.30318277      -0.47833393      -0.19152646      -0.10139514      -0.29383738
H        2.05995708       3.76491813      31.68617327        0       1.00000000       0.07497326       0.28667825      -0.20126212       0.08174020      -0.06777035      -0.30331031
H        4.91324420       0.39210945      29.11007593        0       1.00000000      -0.33666390      -0.56386586      -0.40504043      -0.44770315      -0.05280869       0.27106804
H        4.27559327       3.95939507      26.76823630        0       1.00000000      -0.12165160       0.14585597      -0.19741566       0.52571422      -0.74623173      -0.11407331
H        3.71268573       1.31817319      31.51514445        0       1.00000000      -0.09448698      -0.02390825       0.37565246      -0.66763505       0.10682863       0.30396419
H        2.11632761       0.38763237      29.27518174        0       1.00000000      -0.08161866       0.31998187      -0.23981096       0.47745180       0.07281912       0.53655840
23
Lattice="5.612310241546866 0.0 0.0 0.0 4.860403243099165 0.0 0.0 0.0 44.58243212332868" Properties=species:S:1:pos:R:3:tags:I:1:masses:R:1:momenta:R:3:forces:R:3 KEmax=29.729789663399384 iter=36600 volume=1216.1236359717223 set_wall=T ns_energy=-13.822193082051246 last_walked_iter_clone=36451 energy=-14.961853563175445 stress="0.01761570231102615 -0.0007185836957236314 0.0017041155634449294 -0.0007185836957236314 0.011574161156890972 0.004787024491843118 0.0017041155634449294 0.004787024491843118 0.003306667873845682" pbc="T T F"
H        1.40307756       0.81006721      20.00000000        3       1.00000000       0.00000000       0.00000000       0.00000000       0.00000000       0.00000000       0.00000000
H        4.20923268       0.81006721      20.00000000        3       1.00000000       0.00000000       0.00000000       0.00000000       0.00000000       0.00000000       0.00000000
H        0.00000000       3.24026883      20.00000000        3       1.00000000       0.00000000       0.00000000       0.00000000       0.00000000       0.00000000       0.00000000
H        2.80615512       3.24026883      20.00000000        3       1.00000000       0.00000000       0.00000000       0.00000000       0.00000000       0.00000000       0.00000000
H        0.00000000       1.62013441      22.29121606        2       1.00000000       0.00000000       0.00000000       0.00000000       0.00000000       0.00000000       0.00000000
H        2.80615512       1.62013441      22.29121606        2       1.00000000       0.00000000       0.00000000       0.00000000       0.00000000       0.00000000       0.00000000
H        1.40307756       4.05033604      22.29121606        2       1.00000000       0.00000000       0.00000000       0.00000000       0.00000000       0.00000000       0.00000000
H        4.20923268       4.05033604      22.29121606        2       1.00000000       0.00000000       0.00000000       0.00000000       0.00000000       0.00000000       0.00000000
H        0.00000000       0.00000000      24.58243212        1       1.00000000       0.00000000       0.00000000       0.00000000       0.00000000       0.00000000       0.00000000
H        2.80615512       0.00000000      24.58243212        1       1.00000000       0.00000000       0.00000000       0.00000000       0.00000000       0.00000000       0.00000000
H        1.40307756       2.43020162      24.58243212        1       1.00000000       0.00000000       0.00000000       0.00000000       0.00000000       0.00000000       0.00000000
H        4.20923268       2.43020162      24.58243212        1       1.00000000       0.00000000       0.00000000       0.00000000       0.00000000       0.00000000       0.00000000
H        1.75986821       3.85905334      26.99171878        0       1.00000000       0.18450248       0.11091398       0.09440799      -0.23523565       0.60168830      -0.82663534
H        1.21311643       2.31820489      29.33345791        0       1.00000000       0.13951374       0.01401585       0.27047619       0.02731732      -0.30814280       0.74438402
H        4.69689451       3.92609777      26.71434890        0       1.00000000       0.25012341      -0.01696096       0.09773303       0.06253447       0.26520351      -0.00865729
H        3.02554452       1.47687957      26.70298790        0       1.00000000      -0.04383427      -0.36005984      -0.03303406      -0.00595099      -0.48038816      -0.57542148
H        3.94495432       2.47732540      29.01554566        0       1.00000000       0.23924596      -0.26950666      -0.20756146       0.32575031       0.15160126       0.06106849
H        4.03935061       3.76404403      31.49319545        0       1.00000000       0.02613706       0.14256447      -0.01080251      -0.19152646      -0.10139514      -0.29383738
H        1.46077388       4.02362984      31.33941967        0       1.00000000       0.05386559      -0.04142358       0.02556141       0.08174020      -0.06777035      -0.30331031
H        2.80986214       0.04862320      28.91739432        0       1.00000000       0.11122736      -0.22131764      -0.05913880      -0.44770315      -0.05280869       0.27106804
H        5.70185507       1.50230877      26.78035236        0       1.00000000       0.54201895      -0.14859142      -0.25371755       0.52571422      -0.74623173      -0.11407331
H       -0.18103799       1.28445865      31.99845310        0       1.00000000      -0.40138394       0.02702349       0.10868676      -0.66763505       0.10682863       0.30396419
H        5.40119130      -0.30010688      29.45164929        0       1.00000000       0.11417197       0.05412608      -0.30809682       0.47745180       0.07281912       0.53655840
23
Lattice="5.612310241546866 0.0 0.0 0.0 4.860403243099165 0.0 0.0 0.0 44.58243212332868" Properties=species:S:1:pos:R:3:tags:I:1:masses:R:1:momenta:R:3:forces:R:3 KEmax=29.729789663399384 iter=36600 volume=1216.1236359717223 set_wall=T ns_energy=-13.90407639063063 last_walked_iter_clone=36251 energy=-14.961853563175445 stress="0.01761570231102615 -0.0007185836957236314 0.0017041155634449294 -0.0007185836957236314 0.011574161156890972 0.004787024491843118 0.0017041155634449294 0.004787024491843118 0.003306667873845682" pbc="T T F"
H        1.40307756       0.81006721      20.00000000        3       1.00000000       0.00000000       0.00000000       0.00000000       0.00000000       0.00000000       0.00000000
H        4.20923268       0.81006721      20.00000000        3       1.00000000       0.00000000       0.00000000       0.00000000       0.00000000       0.00000000       0.00000000
H        0.00000000       3.24026883      20.00000000        3       1.00000000       0.00000000       0.00000000       0.00000000       0.00000000       0.00000000       0.00000000
H        2.80615512       3.24026883      20.00000000        3       1.00000000       0.00000000       0.00000000       0.00000000       0.00000000       0.00000000       0.00000000
H        0.00000000       1.62013441      22.29121606        2       1.00000000       0.00000000       0.00000000       0.00000000       0.00000000       0.00000000       0.00000000
H        2.80615512       1.62013441      22.29121606        2       1.00000000       0.00000000       0.00000000       0.00000000       0.00000000       0.00000000       0.00000000
H        1.40307756       4.05033604      22.29121606        2       1.00000000       0.00000000       0.00000000       0.00000000       0.00000000       0.00000000       0.00000000
H        4.20923268       4.05033604      22.29121606        2       1.00000000       0.00000000       0.00000000       0.00000000       0.00000000       0.00000000       0.00000000
H        0.00000000       0.00000000      24.58243212        1       1.00000000       0.00000000       0.00000000       0.00000000       0.00000000       0.00000000       0.00000000
H        2.80615512       0.00000000      24.58243212        1       1.00000000       0.00000000       0.00000000       0.00000000       0.00000000       0.00000000       0.00000000
H        1.40307756       2.43020162      24.58243212        1       1.00000000       0.00000000       0.00000000       0.00000000       0.00000000       0.00000000       0.00000000
H        4.20923268       2.43020162      24.58243212        1       1.00000000       0.00000000       0.00000000       0.00000000       0.00000000       0.00000000       0.00000000
H        5.50642456       3.91746156      31.88152262        0       1.00000000       0.31081573      -0.16998706       0.13916670      -0.23523565       0.60168830      -0.82663534
H        2.89583181       3.32600951      26.81276702        0       1.00000000      -0.08976897       0.47966158      -0.00582553       0.02731732      -0.30814280       0.74438402
H        3.88141911       4.22291631      29.24082322        0       1.00000000       0.26703240       0.09061656       0.15009651       0.06253447       0.26520351      -0.00865729
H        4.14702779       1.65211433      32.41378295        0       1.00000000      -0.27184734      -0.08800397       0.31896105      -0.00595099      -0.48038816      -0.57542148
H        2.57829198       1.68086681      29.31607966        0       1.00000000       0.37048482       0.14190429       0.05407409       0.32575031       0.15160126       0.06106849
H        1.29734154       4.09804777      29.14077348        0       1.00000000       0.28615851       0.20310382       0.18312998      -0.19152646      -0.10139514      -0.29383738
H        1.36853029       1.04450968      26.94668366        0       1.00000000      -0.10511738      -0.20037662      -0.06613863       0.08174020      -0.06777035      -0.30331031
H        4.19364751       0.80641866      27.02912416        0       1.00000000      -0.09618584       0.22768219      -0.25377607      -0.44770315      -0.05280869       0.27106804
H        2.72626341       4.39726627      31.54226792        0       1.00000000      -0.20662503       0.36048662      -0.00223304       0.52571422      -0.74623173      -0.11407331
H        5.47857313       1.75102628      29.26292600        0       1.00000000      -0.38360663       0.32204501       0.16890000      -0.66763505       0.10682863       0.30396419
H        5.71611344       3.33737583      26.84523945        0       1.00000000       0.21482101      -0.01475177      -0.38100899       0.47745180       0.07281912       0.53655840
23
Lattice="5.612310241546866 0.0 0.0 0.0 4.860403243099165 0.0 0.0 0.0 44.58243212332868" Properties=species:S:1:pos:R:3:tags:I:1:masses:R:1:momenta:R:3:forces:R:3 KEmax=29.729789663399384 iter=36600 volume=1216.1236359717223 set_wall=T ns_energy=-13.823724546206787 last_walked_iter_clone=36309 energy=-14.961853563175445 stress="0.01761570231102615 -0.0007185836957236314 0.0017041155634449294 -0.0007185836957236314 0.011574161156890972 0.004787024491843118 0.0017041155634449294 0.004787024491843118 0.003306667873845682" pbc="T T F"
H        1.40307756       0.81006721      20.00000000        3       1.00000000       0.00000000       0.00000000       0.00000000       0.00000000       0.00000000       0.00000000
H        4.20923268       0.81006721      20.00000000        3       1.00000000       0.00000000       0.00000000       0.00000000       0.00000000       0.00000000       0.00000000
H        0.00000000       3.24026883      20.00000000        3       1.00000000       0.00000000       0.00000000       0.00000000       0.00000000       0.00000000       0.00000000
H        2.80615512       3.24026883      20.00000000        3       1.00000000       0.00000000       0.00000000       0.00000000       0.00000000       0.00000000       0.00000000
H        0.00000000       1.62013441      22.29121606        2       1.00000000       0.00000000       0.00000000       0.00000000       0.00000000       0.00000000       0.00000000
H        2.80615512       1.62013441      22.29121606        2       1.00000000       0.00000000       0.00000000       0.00000000       0.00000000       0.00000000       0.00000000
H        1.40307756       4.05033604      22.29121606        2       1.00000000       0.00000000       0.00000000       0.00000000       0.00000000       0.00000000       0.00000000
H        4.20923268       4.05033604      22.29121606        2       1.00000000       0.00000000       0.00000000       0.00000000       0.00000000       0.00000000       0.00000000
H        0.00000000       0.00000000      24.58243212        1       1.00000000       0.00000000       0.00000000       0.00000000       0.00000000       0.00000000       0.00000000
H        2.80615512       0.00000000      24.58243212        1       1.00000000       0.00000000       0.00000000       0.00000000       0.00000000       0.00000000       0.00000000
H        1.40307756       2.43020162      24.58243212        1       1.00000000       0.00000000       0.00000000       0.00000000       0.00000000       0.00000000       0.00000000
H        4.20923268       2.43020162      24.58243212        1       1.00000000       0.00000000       0.00000000       0.00000000       0.00000000       0.00000000       0.00000000
H        4.14538493       0.73952553      26.65609299        0       1.00000000      -0.36155605      -0.35811455      -0.29627676      -0.23523565       0.60168830      -0.82663534
H        3.09815749       4.59744783      28.95004869        0       1.00000000      -0.07620756      -0.20548295      -0.02276765       0.02731732      -0.30814280       0.74438402
H        1.42065570       0.68177372      26.83520549        0       1.00000000       0.06725704      -0.28789264      -0.03740384       0.06253447       0.26520351      -0.00865729
H        5.64556348       3.34514095      26.86847356        0       1.00000000       0.00779386       0.67060112       0.01674397      -0.00595099      -0.48038816      -0.57542148
H       -0.00055605       4.51131128      29.58768932        0       1.00000000       0.14179437       0.22255477       0.37222900       0.32575031       0.15160126       0.06106849
H        4.11078805       0.69728350      31.40837084        0       1.00000000      -0.03954600      -0.04341771      -0.05390598      -0.19152646      -0.10139514      -0.29383738
H        0.22302608       2.66846040      32.28382772        0       1.00000000      -0.00352531      -0.13020903       0.40427824       0.08174020      -0.06777035      -0.30331031
H        4.47961820       2.04166522      28.75336909        0       1.00000000       0.10497064       0.25541700       0.08251514      -0.44770315      -0.05280869       0.27106804
H        2.82989658       3.04803783      26.86801767        0       1.00000000       0.18621310      -0.03843461      -0.04554075       0.52571422      -0.74623173      -0.11407331
H        3.20041638       3.13740691      31.33666773        0       1.00000000      -0.07629945       0.00585838      -0.09454406      -0.66763505       0.10682863       0.30396419
H        1.42445525       2.03108151      29.30082220        0       1.00000000      -0.03565662       0.09900865       0.36012125       0.47745180       0.07281912       0.53655840
23
Lattice="5.612310241546866 0.0 0.0 0.0 4.860403243099165 0.0 0.0 0.0 44.58243212332868" Properties=species:S:1:pos:R:3:tags:I:1:masses:R:1:momenta:R:3:forces:R:3 KEmax=29.729789663399384 iter=36600 volume=1216.1236359717223 set_wall=T ns_energy=-13.870264303923616 last_walked_iter_clone=36490 energy=-14.961853563175445 stress="0.01761570231102615 -0.0007185836957236314 0.0017041155634449294 -0.0007185836957236314 0.011574161156890972 0.004787024491843118 0.0017041155634449294 0.004787024491843118 0.003306667873845682" pbc="T T F"
H        1.40307756       0.81006721      20.00000000        3       1.00000000       0.00000000       0.00000000       0.00000000       0.00000000       0.00000000       0.00000000
H        4.20923268       0.81006721      20.00000000        3       1.00000000       0.00000000       0.00000000       0.00000000       0.00000000       0.00000000       0.00000000
H        0.00000000       3.24026883      20.00000000        3       1.00000000       0.00000000       0.00000000       0.00000000       0.00000000       0.00000000       0.00000000
H        2.80615512       3.24026883      20.00000000        3       1.00000000       0.00000000       0.00000000       0.00000000       0.00000000       0.00000000       0.00000000
H        0.00000000       1.62013441      22.29121606        2       1.00000000       0.00000000       0.00000000       0.00000000       0.00000000       0.00000000       0.00000000
H        2.80615512       1.62013441      22.29121606        2       1.00000000       0.00000000       0.00000000       0.00000000       0.00000000       0.00000000       0.00000000
H        1.40307756       4.05033604      22.29121606        2       1.00000000       0.00000000       0.00000000       0.00000000       0.00000000       0.00000000       0.00000000
H        4.20923268       4.05033604      22.29121606        2       1.00000000       0.00000000       0.00000000       0.00000000       0.00000000       0.00000000       0.00000000
H        0.00000000       0.00000000      24.58243212        1       1.00000000       0.00000000       0.00000000       0.00000000       0.00000000       0.00000000       0.00000000
H        2.80615512       0.00000000      24.58243212        1       1.00000000       0.00000000       0.00000000       0.00000000       0.00000000       0.00000000       0.00000000
H        1.40307756       2.43020162      24.58243212        1       1.00000000       0.00000000       0.00000000       0.00000000       0.00000000       0.00000000       0.00000000
H        4.20923268       2.43020162      24.58243212        1       1.00000000       0.00000000       0.00000000       0.00000000       0.00000000       0.00000000       0.00000000
H        5.72191858       1.39244463      26.95499581        0       1.00000000      -0.05308576      -0.20268223      -0.23623270      -0.23523565       0.60168830      -0.82663534
H        2.69385316       1.71623774      26.71111571        0       1.00000000      -0.22359435      -0.10492830      -0.30146069       0.02731732      -0.30814280       0.74438402
H        4.23118177       0.41569390      29.29647460        0       1.00000000       0.45601521      -0.18045666      -0.26501396       0.06253447       0.26520351      -0.00865729
H        1.34650368       3.93315651      26.81045790        0       1.00000000      -0.04999498      -0.01636585       0.10007856      -0.00595099      -0.48038816      -0.57542148
H        2.72370969       2.95916179      29.49640401        0       1.00000000      -0.30925509      -0.00859939       0.07048762       0.32575031       0.15160126       0.06106849
H        1.45397215       0.42313071      29.24361955        0       1.00000000       0.16158676      -0.24619812      -0.05831972      -0.19152646      -0.10139514      -0.29383738
H        5.63484494       2.94365412      29.18308482        0       1.00000000       0.19179737      -0.27071811      -0.61789259       0.08174020      -0.06777035      -0.30331031
H        4.27179558       3.97922488      26.77266397        0       1.00000000       0.47335811       0.13593066       0.10761810      -0.44770315      -0.05280869       0.27106804
H        3.44504191       1.55882794      32.13216250        0       1.00000000      -0.11148120      -0.05125716      -0.10412144       0.52571422      -0.74623173      -0.11407331
H        0.25360695       1.08026490      31.52441782        0       1.00000000       0.17011991      -0.08626521      -0.01112808      -0.66763505       0.10682863       0.30396419
H        1.37009842       3.65642275      31.79109321        0       1.00000000       0.10279908       0.14495523      -0.07611636       0.47745180       0.07281912       0.53655840
23
Lattice="5.612310241546866 0.0 0.0 0.0 4.860403243099165 0.0 0.0 0.0 44.58243212332868" Properties=species:S:1:pos:R:3:tags:I:1:masses:R:1:momenta:R:3:forces:R:3 KEmax=29.729789663399384 iter=36600 volume=1216.1236359717223 set_wall=T ns_energy=-13.851540233793266 last_walked_iter_clone=36579 energy=-14.961853563175445 stress="0.01761570231102615 -0.0007185836957236314 0.0017041155634449294 -0.0007185836957236314 0.011574161156890972 0.004787024491843118 0.0017041155634449294 0.004787024491843118 0.003306667873845682" pbc="T T F"
H        1.40307756       0.81006721      20.00000000        3       1.00000000       0.00000000       0.00000000       0.00000000       0.00000000       0.00000000       0.00000000
H        4.20923268       0.81006721      20.00000000        3       1.00000000       0.00000000       0.00000000       0.00000000       0.00000000       0.00000000       0.00000000
H        0.00000000       3.24026883      20.00000000        3       1.00000000       0.00000000       0.00000000       0.00000000       0.00000000       0.00000000       0.00000000
H        2.80615512       3.24026883      20.00000000        3       1.00000000       0.00000000       0.00000000       0.00000000       0.00000000       0.00000000       0.00000000
H        0.00000000       1.62013441      22.29121606        2       1.00000000       0.00000000       0.00000000       0.00000000       0.00000000       0.00000000       0.00000000
H        2.80615512       1.62013441      22.29121606        2       1.00000000       0.00000000       0.00000000       0.00000000       0.00000000       0.00000000       0.00000000