24
Lattice="5.612310241546866 0.0 0.0 0.0 4.860403243099165 0.0 0.0 0.0 44.58243212332868" Properties=species:S:1:pos:R:3:tags:I:1:masses:R:1:momenta:R:3:forces:R:3 KEmax=31.022389213981967 iter=35763 volume=1216.1236359717223 set_wall=T ns_energy=-13.5093445542348 last_walked_iter_clone=35607 energy=-14.412203784786096 stress="0.00541889034464638 -0.007864515788879825 0.0051354998734841105 -0.007864515788879825 -0.00014721451917150822 0.002747766289429902 0.0051354998734841105 0.002747766289429902 -0.0065830481752539045" pbc="T T F"
H        1.40307756       0.81006721      20.00000000        3       1.00000000       0.00000000       0.00000000       0.00000000       0.00000000       0.00000000       0.00000000
H        4.20923268       0.81006721      20.00000000        3       1.00000000       0.00000000       0.00000000       0.00000000       0.00000000       0.00000000       0.00000000
H        0.00000000       3.24026883      20.00000000        3       1.00000000       0.00000000       0.00000000       0.00000000       0.00000000       0.00000000       0.00000000
H        2.80615512       3.24026883      20.00000000        3       1.00000000       0.00000000       0.00000000       0.00000000       0.00000000       0.00000000       0.00000000
H        0.00000000       1.62013441      22.29121606        2       1.00000000       0.00000000       0.00000000       0.00000000       0.00000000       0.00000000       0.00000000
H        2.80615512       1.62013441      22.29121606        2       1.00000000       0.00000000       0.00000000       0.00000000       0.00000000       0.00000000       0.00000000
H        1.40307756       4.05033604      22.29121606        2       1.00000000       0.00000000       0.00000000       0.00000000       0.00000000       0.00000000       0.00000000
H        4.20923268       4.05033604      22.29121606        2       1.00000000       0.00000000       0.00000000       0.00000000       0.00000000       0.00000000       0.00000000
H        0.00000000       0.00000000      24.58243212        1       1.00000000       0.00000000       0.00000000       0.00000000       0.00000000       0.00000000       0.00000000
H        2.80615512       0.00000000      24.58243212        1       1.00000000       0.00000000       0.00000000       0.00000000       0.00000000       0.00000000       0.00000000
H        1.40307756       2.43020162      24.58243212        1       1.00000000       0.00000000       0.00000000       0.00000000       0.00000000       0.00000000       0.00000000
H        4.20923268       2.43020162      24.58243212        1       1.00000000       0.00000000       0.00000000       0.00000000       0.00000000       0.00000000       0.00000000
H        4.06260462       2.98305137      32.28803650        0       1.00000000       0.71282962      -0.33631059      -0.15422309      -0.78320554      -0.30147963       0.37049333
H        3.04462046       2.01645108      29.30652820        0       1.00000000       0.18220285      -0.11897288       0.28585737      -0.03518133      -0.37114549       0.91681016
H        0.11807086       0.55757661      31.46679273        0       1.00000000       0.07632885       0.27227096       0.12414269       0.21593060      -0.46708430       0.50384663
H        4.27854361       4.45058691      29.24186157        0       1.00000000      -0.12506873      -0.09562266       0.23241826      -1.66634217       0.08026872       1.16697803
H        1.55621402       3.07520391      31.45155317        0       1.00000000      -0.23415476       0.34195227       0.22481068       0.02938221       1.31628107      -0.35933259
H        2.82973865       0.53063167      31.52003937        0       1.00000000      -0.20849052       0.33243208      -0.30780856       0.87917334       0.46417520      -1.03159490
H        0.79358657       1.40609610      26.91385768        0       1.00000000       0.16660281      -0.44226146      -0.54691309       0.57746068      -0.33810360       0.02087241
H        1.65319890       4.40504148      28.99602694        0       1.00000000       0.31744054       0.06512118       0.51444117      -0.03752533       1.22819710       0.91603753
H        3.64311883       1.21188009      26.94178603        0       1.00000000      -0.00914148      -0.06663657       0.44323715      -0.11183865       0.39949291      -0.06781370
H        0.01253754       3.82537182      26.76285967        0       1.00000000      -0.24802015       0.01704481       0.31140436       1.62769993      -0.16415580       0.09849360
H        2.52655631       3.50172032      26.86759909        0       1.00000000      -0.62395466      -0.04564344      -0.36545527      -0.90687756      -1.01320335      -0.05139292
H        5.69963410       2.16129987      29.32779860        0       1.00000000       0.20175705       0.40164863       0.33714167      -0.20333014      -0.90612719      -1.82239627
24
Lattice="5.612310241546866 0.0 0.0 0.0 4.860403243099165 0.0 0.0 0.0 44.58243212332868" Properties=species:S:1:pos:R:3:tags:I:1:masses:R:1:momenta:R:3:forces:R:3 KEmax=31.022389213981967 iter=35763 volume=1216.1236359717223 set_wall=T ns_energy=-13.556845291688232 last_walked_iter_clone=35681 energy=-14.412203784786096 stress="0.00541889034464638 -0.007864515788879825 0.0051354998734841105 -0.007864515788879825 -0.00014721451917150822 0.002747766289429902 0.0051354998734841105 0.002747766289429902 -0.0065830481752539045" pbc="T T F"
H        1.40307756       0.81006721      20.00000000        3       1.00000000       0.00000000       0.00000000       0.00000000       0.00000000       0.00000000       0.00000000
H        4.20923268       0.81006721      20.00000000        3       1.00000000       0.00000000       0.00000000       0.00000000       0.00000000       0.00000000       0.00000000
H        0.00000000       3.24026883      20.00000000        3       1.00000000       0.00000000       0.00000000       0.00000000       0.00000000       0.00000000       0.00000000
H        2.80615512       3.24026883      20.00000000        3       1.00000000       0.00000000       0.00000000       0.00000000       0.00000000       0.00000000       0.00000000
H        0.00000000       1.62013441      22.29121606        2       1.00000000       0.00000000       0.00000000       0.00000000       0.00000000       0.00000000       0.00000000
H        2.80615512       1.62013441      22.29121606        2       1.00000000       0.00000000       0.00000000       0.00000000       0.00000000       0.00000000       0.00000000
H        1.40307756       4.05033604      22.29121606        2       1.00000000       0.00000000       0.00000000       0.00000000       0.00000000       0.00000000       0.00000000
H        4.20923268       4.05033604      22.29121606        2       1.00000000       0.00000000       0.00000000       0.00000000       0.00000000       0.00000000       0.00000000
H        0.00000000       0.00000000      24.58243212        1       1.00000000       0.00000000       0.00000000       0.00000000       0.00000000       0.00000000       0.00000000
H        2.80615512       0.00000000      24.58243212        1       1.00000000       0.00000000       0.00000000       0.00000000       0.00000000       0.00000000       0.00000000
H        1.40307756       2.43020162      24.58243212        1       1.00000000       0.00000000       0.00000000       0.00000000       0.00000000       0.00000000       0.00000000
H        4.20923268       2.43020162      24.58243212        1       1.00000000       0.00000000       0.00000000       0.00000000       0.00000000       0.00000000       0.00000000
H        2.85961106       3.72642819      27.22425949        0       1.00000000      -0.13453566       0.24904559       0.04842797      -0.78320554      -0.30147963       0.37049333
H        2.69816709       0.89555827      29.31289522        0       1.00000000      -0.11804711       0.26683186       0.17778734      -0.03518133      -0.37114549       0.91681016
H        5.18519570       2.58171207      32.30910407        0       1.00000000       0.22223456       0.42106481      -0.00972571       0.21593060      -0.46708430       0.50384663
H        5.79258225       0.84967844      29.66968788        0       1.00000000       0.45073478      -0.30714416      -0.11717521      -1.66634217       0.08026872       1.16697803
H        1.16694533       3.12831731      29.91439557        0       1.00000000      -0.28007850      -0.01075771      -0.06352892       0.02938221       1.31628107      -0.35933259
H        2.49650519       2.72455034      32.44521810        0       1.00000000      -0.04197908      -0.12075301      -0.10828667       0.87917334       0.46417520      -1.03159490
H        1.64472081       1.22073443      26.84609774        0       1.00000000       0.48666456      -0.04515892      -0.20675318       0.57746068      -0.33810360       0.02087241
H        3.90421831       3.60213177      29.66001398        0       1.00000000      -0.39647377      -0.11409845       0.26798179      -0.03752533       1.22819710       0.91603753
H        0.14983567       3.74564368      27.16331846        0       1.00000000      -0.53301915      -0.11856822      -0.12095143      -0.11183865       0.39949291      -0.06781370
H        4.26007782       1.24666548      27.11241456        0       1.00000000      -0.09183769      -0.40140437       0.26982078       1.62769993      -0.16415580       0.09849360
H        3.63411704       0.28972463      32.10868974        0       1.00000000       0.04534111      -0.21188324       0.06473419      -0.90687756      -1.01320335      -0.05139292
H        0.64737107       0.20850458      33.09101925        0       1.00000000       0.21967345      -0.29423429       0.59493389      -0.20333014      -0.90612719      -1.82239627
24
Lattice="5.612310241546866 0.0 0.0 0.0 4.860403243099165 0.0 0.0 0.0 44.58243212332868" Properties=species:S:1:pos:R:3:tags:I:1:masses:R:1:momenta:R:3:forces:R:3 KEmax=31.022389213981967 iter=35763 volume=1216.1236359717223 set_wall=T ns_energy=-13.653081273496491 last_walked_iter_clone=35743 energy=-14.412203784786096 stress="0.00541889034464638 -0.007864515788879825 0.0051354998734841105 -0.007864515788879825 -0.00014721451917150822 0.002747766289429902 0.0051354998734841105 0.002747766289429902 -0.0065830481752539045" pbc="T T F"
H        1.40307756       0.81006721      20.00000000        3       1.00000000       0.00000000       0.00000000       0.00000000       0.00000000       0.00000000       0.00000000
H        4.20923268       0.81006721      20.00000000        3       1.00000000       0.00000000       0.00000000       0.00000000       0.00000000       0.00000000       0.00000000
H        0.00000000       3.24026883      20.00000000        3       1.00000000       0.00000000       0.00000000       0.00000000       0.00000000       0.00000000       0.00000000
H        2.80615512       3.24026883      20.00000000        3       1.00000000       0.00000000       0.00000000       0.00000000       0.00000000       0.00000000       0.00000000
H        0.00000000       1.62013441      22.29121606        2       1.00000000       0.00000000       0.00000000       0.00000000       0.00000000       0.00000000       0.00000000
H        2.80615512       1.62013441      22.29121606        2       1.00000000       0.00000000       0.00000000       0.00000000       0.00000000       0.00000000       0.00000000
H        1.40307756       4.05033604      22.29121606        2       1.00000000       0.00000000       0.00000000       0.00000000       0.00000000       0.00000000       0.00000000
H        4.20923268       4.05033604      22.29121606        2       1.00000000       0.00000000       0.00000000       0.00000000       0.00000000       0.00000000       0.00000000
H        0.00000000       0.00000000      24.58243212        1       1.00000000       0.00000000       0.00000000       0.00000000       0.00000000       0.00000000       0.00000000
H        2.80615512       0.00000000      24.58243212        1       1.00000000       0.00000000       0.00000000       0.00000000       0.00000000       0.00000000       0.00000000
H        1.40307756       2.43020162      24.58243212        1       1.00000000       0.00000000       0.00000000       0.00000000       0.00000000       0.00000000       0.00000000
H        4.20923268       2.43020162      24.58243212        1       1.00000000       0.00000000       0.00000000       0.00000000       0.00000000       0.00000000       0.00000000
H        3.01528849       3.26638547      27.21602374        0       1.00000000      -0.02739421       0.22786965       0.02368461      -0.78320554      -0.30147963       0.37049333
H        4.66681065       0.05770091      31.64495289        0       1.00000000      -0.06485403      -0.34030137       0.21390634      -0.03518133      -0.37114549       0.91681016
H        1.64831883       0.57279526      26.66018797        0       1.00000000       0.14538021       0.50331277       0.34951349       0.21593060      -0.46708430       0.50384663
H        1.47993642       2.74688989      29.14150252        0       1.00000000       0.00774252      -0.29544469       0.11230781      -1.66634217       0.08026872       1.16697803
H        0.20139955       2.96719268      26.77060355        0       1.00000000       0.17076007       0.40742291       0.24110174       0.02938221       1.31628107      -0.35933259
H        1.54754027       5.08699200      31.31882694        0       1.00000000       0.11908144       0.03351012       0.53473032       0.87917334       0.46417520      -1.03159490
H        6.06567085       0.19560750      28.93653336        0       1.00000000       0.20533567      -0.18768923      -0.32445884       0.57746068      -0.33810360       0.02087241
H        4.43769304       0.51471549      26.89274413        0       1.00000000      -0.13114770      -0.02004657       0.28267423      -0.03752533       1.22819710       0.91603753
H        3.02796132       2.30120684      31.81999218        0       1.00000000       0.24732675       0.31060387       0.26057724      -0.11183865       0.39949291      -0.06781370
H        3.18861726       0.45608000      29.16569532        0       1.00000000       0.12343866       0.07695385      -0.34161043       1.62769993      -0.16415580       0.09849360
H        4.57253934       2.58511612      29.38179117        0       1.00000000      -0.31754837       0.10099389      -0.20737613      -0.90687756      -1.01320335      -0.05139292
H        5.00620471       2.95807168      33.52926512        0       1.00000000      -0.09812130      -0.24971738       0.08387383      -0.20333014      -0.90612719      -1.82239627
24
Lattice="5.612310241546866 0.0 0.0 0.0 4.860403243099165 0.0 0.0 0.0 44.58243212332868" Properties=species:S:1:pos:R:3:tags:I:1:masses:R:1:momenta:R:3:forces:R:3 KEmax=31.022389213981967 iter=35763 volume=1216.1236359717223 set_wall=T ns_energy=-13.552781184669625 last_walked_iter_clone=35257 energy=-14.412203784786096 stress="0.00541889034464638 -0.007864515788879825 0.0051354998734841105 -0.007864515788879825 -0.00014721451917150822 0.002747766289429902 0.0051354998734841105 0.002747766289429902 -0.0065830481752539045" pbc="T T F"
H        1.40307756       0.81006721      20.00000000        3       1.00000000       0.00000000       0.00000000       0.00000000       0.00000000       0.00000000       0.00000000
H        4.20923268       0.81006721      20.00000000        3       1.00000000       0.00000000       0.00000000       0.00000000       0.00000000       0.00000000       0.00000000
H        0.00000000       3.24026883      20.00000000        3       1.00000000       0.00000000       0.00000000       0.00000000       0.00000000       0.00000000       0.00000000
H        2.80615512       3.24026883      20.00000000        3       1.00000000       0.00000000       0.00000000       0.00000000       0.00000000       0.00000000       0.00000000
H        0.00000000       1.62013441      22.29121606        2       1.00000000       0.00000000       0.00000000       0.00000000       0.00000000       0.00000000       0.00000000
H        2.80615512       1.62013441      22.29121606        2       1.00000000       0.00000000       0.00000000       0.00000000       0.00000000       0.00000000       0.00000000
H        1.40307756       4.05033604      22.29121606        2       1.00000000       0.00000000       0.00000000       0.00000000       0.00000000       0.00000000       0.00000000
H        4.20923268       4.05033604      22.29121606        2       1.00000000       0.00000000       0.00000000       0.00000000       0.00000000       0.00000000       0.00000000
H        0.00000000       0.00000000      24.58243212        1       1.00000000       0.00000000       0.00000000       0.00000000       0.00000000       0.00000000       0.00000000
H        2.80615512       0.00000000      24.58243212        1       1.00000000       0.00000000       0.00000000       0.00000000       0.00000000       0.00000000       0.00000000
H        1.40307756       2.43020162      24.58243212        1       1.00000000       0.00000000       0.00000000       0.00000000       0.00000000       0.00000000       0.00000000
H        4.20923268       2.43020162      24.58243212        1       1.00000000       0.00000000       0.00000000       0.00000000       0.00000000       0.00000000       0.00000000
H        3.29050579       3.85388894      31.50015713        0       1.00000000      -0.48049369       0.33935736       0.32039059      -0.78320554      -0.30147963       0.37049333
H        5.02144144       1.57582519      32.25339561        0       1.00000000       0.19111760      -0.00610332       0.40624343      -0.03518133      -0.37114549       0.91681016
H        1.62295997       0.63749403      29.32365773        0       1.00000000       0.24444891      -0.31455655       0.15197210       0.21593060      -0.46708430       0.50384663
H        5.49629839       1.72586572      26.94792567        0       1.00000000      -0.36003972       0.15924915       0.29040863      -1.66634217       0.08026872       1.16697803
H        0.31622783       3.89249171      31.65193867        0       1.00000000       0.15674107       0.38091288       0.37983198       0.02938221       1.31628107      -0.35933259
H        4.38093069       0.54058291      29.79945219        0       1.00000000      -0.10591401      -0.01460397      -0.11516986       0.87917334       0.46417520      -1.03159490
H        2.76019606       2.90541798      29.16121965        0       1.00000000      -0.02115150       0.30811729      -0.44870534       0.57746068      -0.33810360       0.02087241
H        5.69081206       2.82566846      29.32396208        0       1.00000000      -0.10034514      -0.44033952      -0.27814013      -0.03752533       1.22819710       0.91603753
H        2.48813592       1.77301814      26.94856048        0       1.00000000      -0.16520446      -0.19435858      -0.21206867      -0.11183865       0.39949291      -0.06781370
H        1.17963970       4.47778120      26.94984591        0       1.00000000       0.13055813      -0.09901285      -0.38850942       1.62769993      -0.16415580       0.09849360
H        2.28873415       1.55283687      32.35614083        0       1.00000000       0.03856128       0.33306748       0.01574060      -0.90687756      -1.01320335      -0.05139292
H        3.95104138       4.21074220      27.11911222        0       1.00000000      -0.49598104      -0.35628854      -0.36310679      -0.20333014      -0.90612719      -1.82239627
24
Lattice="5.612310241546866 0.0 0.0 0.0 4.860403243099165 0.0 0.0 0.0 44.58243212332868" Properties=species:S:1:pos:R:3:tags:I:1:masses:R:1:momenta:R:3:forces:R:3 KEmax=31.022389213981967 iter=35763 volume=1216.1236359717223 set_wall=T ns_energy=-13.53211625042079 last_walked_iter_clone=35055 energy=-14.412203784786096 stress="0.00541889034464638 -0.007864515788879825 0.0051354998734841105 -0.007864515788879825 -0.00014721451917150822 0.002747766289429902 0.0051354998734841105 0.002747766289429902 -0.0065830481752539045" pbc="T T F"
H        1.40307756       0.81006721      20.00000000        3       1.00000000       0.00000000       0.00000000       0.00000000       0.00000000       0.00000000       0.00000000
H        4.20923268       0.81006721      20.00000000        3       1.00000000       0.00000000       0.00000000       0.00000000       0.00000000       0.00000000       0.00000000
H        0.00000000       3.24026883      20.00000000        3       1.00000000       0.00000000       0.00000000       0.00000000       0.00000000       0.00000000       0.00000000
H        2.80615512       3.24026883      20.00000000        3       1.00000000       0.00000000       0.00000000       0.00000000       0.00000000       0.00000000       0.00000000
H        0.00000000       1.62013441      22.29121606        2       1.00000000       0.00000000       0.00000000       0.00000000       0.00000000       0.00000000       0.00000000
H        2.80615512       1.62013441      22.29121606        2       1.00000000       0.00000000       0.00000000       0.00000000       0.00000000       0.00000000       0.00000000
H        1.40307756       4.05033604      22.29121606        2       1.00000000       0.00000000       0.00000000       0.00000000       0.00000000       0.00000000       0.00000000
H        4.20923268       4.05033604      22.29121606        2       1.00000000       0.00000000       0.00000000       0.00000000       0.00000000       0.00000000       0.00000000
H        0.00000000       0.00000000      24.58243212        1       1.00000000       0.00000000       0.00000000       0.00000000       0.00000000       0.00000000       0.00000000
H        2.80615512       0.00000000      24.58243212        1       1.00000000       0.00000000       0.00000000       0.00000000       0.00000000       0.00000000       0.00000000
H        1.40307756       2.43020162      24.58243212        1       1.00000000       0.00000000       0.00000000       0.00000000       0.00000000       0.00000000       0.00000000
H        4.20923268       2.43020162      24.58243212        1       1.00000000       0.00000000       0.00000000       0.00000000       0.00000000       0.00000000       0.00000000
H        0.17040609       2.30500737      29.72393225        0       1.00000000      -0.20213418       0.30086604       0.29260555      -0.78320554      -0.30147963       0.37049333
H        3.35767643       2.76000751      31.62796945        0       1.00000000      -0.41229711      -0.35747559      -0.24003949      -0.03518133      -0.37114549       0.91681016
H        4.66919844       4.86959175      29.16800167        0       1.00000000      -0.45754170       0.43467458       0.18811452       0.21593060      -0.46708430       0.50384663
H        4.20641553       4.04837966      26.81744438        0       1.00000000       0.07322890      -0.40154277       0.38223593      -1.66634217       0.08026872       1.16697803
H        1.74135399       0.29028585      32.58173765        0       1.00000000       0.19931133      -0.06836399      -0.23624203       0.02938221       1.31628107      -0.35933259
H        2.73267681       2.53870513      29.10568661        0       1.00000000       0.19988465      -0.13328971      -0.00439264       0.87917334       0.46417520      -1.03159490
H        4.83871575       0.43233677      31.76839387        0       1.00000000      -0.00968687       0.37211359       0.34670974       0.57746068      -0.33810360       0.02087241
H        1.64771077       0.10554100      29.50245164        0       1.00000000       0.12798483      -0.21506020      -0.27865895      -0.03752533       1.22819710       0.91603753
H        5.35769388       1.68827755      26.95113738        0       1.00000000      -0.28873872       0.12890417       0.36449310      -0.11183865       0.39949291      -0.06781370
H        1.12836399       3.99988058      27.21606789        0       1.00000000       0.40485880      -0.09207748      -0.06028709       1.62769993      -0.16415580       0.09849360
H        0.40934636       2.83417381      32.66424393        0       1.00000000      -0.08749267       0.19311944      -0.18374601      -0.90687756      -1.01320335      -0.05139292
H        2.77372886       1.22214011      26.92459714        0       1.00000000       0.29436183      -0.16249001       0.40309023      -0.20333014      -0.90612719      -1.82239627
24
Lattice="5.612310241546866 0.0 0.0 0.0 4.860403243099165 0.0 0.0 0.0 44.58243212332868" Properties=species:S:1:pos:R:3:tags:I:1:masses:R:1:momenta:R:3:forces:R:3 KEmax=31.022389213981967 iter=35763 volume=1216.1236359717223 set_wall=T ns_energy=-13.557164875096388 last_walked_iter_clone=35761 energy=-14.412203784786096 stress="0.00541889034464638 -0.007864515788879825 0.0051354998734841105 -0.007864515788879825 -0.00014721451917150822 0.002747766289429902 0.0051354998734841105 0.002747766289429902 -0.0065830481752539045" pbc="T T F"
H        1.40307756       0.81006721      20.00000000        3       1.00000000       0.00000000       0.00000000       0.00000000       0.00000000       0.00000000       0.00000000
H        4.20923268       0.81006721      20.00000000        3       1.00000000       0.00000000       0.00000000       0.00000000       0.00000000       0.00000000       0.00000000
H        0.00000000       3.24026883      20.00000000        3       1.00000000       0.00000000       0.00000000       0.00000000       0.00000000       0.00000000       0.00000000
H        2.80615512       3.24026883      20.00000000        3       1.00000000       0.00000000       0.00000000       0.00000000       0.00000000       0.00000000       0.00000000
H        0.00000000       1.62013441      22.29121606        2       1.00000000       0.00000000       0.00000000       0.00000000       0.00000000       0.00000000       0.00000000
H        2.80615512       1.62013441      22.29121606        2       1.00000000       0.00000000       0.00000000       0.00000000       0.00000000       0.00000000       0.00000000
H        1.40307756       4.05033604      22.29121606        2       1.00000000       0.00000000       0.00000000       0.00000000       0.00000000       0.00000000       0.00000000
H        4.20923268       4.05033604      22.29121606        2       1.00000000       0.00000000       0.00000000       0.00000000       0.00000000       0.00000000       0.00000000
H        0.00000000       0.00000000      24.58243212        1       1.00000000       0.00000000       0.00000000       0.00000000       0.00000000       0.00000000       0.00000000
H        2.80615512       0.00000000      24.58243212        1       1.00000000       0.00000000       0.00000000       0.00000000       0.00000000       0.00000000       0.00000000
H        1.40307756       2.43020162      24.58243212        1       1.00000000       0.00000000       0.00000000       0.00000000       0.00000000       0.00000000       0.00000000
H        4.20923268       2.43020162      24.58243212        1       1.00000000       0.00000000       0.00000000       0.00000000       0.00000000       0.00000000       0.00000000
H        4.48347142       3.25876184      33.31884087        0       1.00000000      -0.31696164      -0.60628597      -0.53259129      -0.78320554      -0.30147963       0.37049333
H        3.19556132       4.21120458      29.38088407        0       1.00000000       0.08767739       0.14294109      -0.10191642      -0.03518133      -0.37114549       0.91681016
H        1.86090012       1.79103190      29.24219854        0       1.00000000       0.02565596       0.35023549      -0.09604099       0.21593060      -0.46708430       0.50384663
H        3.46223364       1.19335653      27.36441332        0       1.00000000       0.34382163      -0.38791107      -0.18669452      -1.66634217       0.08026872       1.16697803
H        0.64901973       4.25833993      29.51164189        0       1.00000000      -0.38084616       0.24983583       0.11763980       0.02938221       1.31628107      -0.35933259
H        0.66935180       1.14861472      27.12029976        0       1.00000000      -0.19314478       0.05120289      -0.32995823       0.87917334       0.46417520      -1.03159490
H        2.00563128       3.16934325      31.73279083        0       1.00000000      -0.34463569       0.22805245       0.26489735       0.57746068      -0.33810360       0.02087241
H        4.62415705       1.90592658      29.80524263        0       1.00000000       0.15843609      -0.35197052       0.30843282      -0.03752533       1.22819710       0.91603753
H        5.07206112       3.73111581      27.16537362        0       1.00000000      -0.09485639      -0.04948808       0.25362005      -0.11183865       0.39949291      -0.06781370
H        3.21310615       0.55628480      32.60739562        0       1.00000000      -0.00522276       0.41504093      -0.04920403       1.62769993      -0.16415580       0.09849360
H        2.45187609       3.48237157      26.95853923        0       1.00000000      -0.15722363       0.32009954      -0.28973486      -0.90687756      -1.01320335      -0.05139292
H        0.51056148       0.61072352      31.87251884        0       1.00000000      -0.15527772       0.15351767      -0.07697451      -0.20333014      -0.90612719      -1.82239627
24
Lattice="5.612310241546866 0.0 0.0 0.0 4.860403243099165 0.0 0.0 0.0 44.58243212332868" Properties=species:S:1:pos:R:3:tags:I:1:masses:R:1:momenta:R:3:forces:R:3 KEmax=31.022389213981967 iter=35763 volume=1216.1236359717223 set_wall=T ns_energy=-13.519901386803083 last_walked_iter_clone=35536 energy=-14.412203784786096 stress="0.00541889034464638 -0.007864515788879825 0.0051354998734841105 -0.007864515788879825 -0.00014721451917150822 0.002747766289429902 0.0051354998734841105 0.002747766289429902 -0.0065830481752539045" pbc="T T F"