24
Lattice="5.612310241546866 0.0 0.0 0.0 4.860403243099165 0.0 0.0 0.0 44.58243212332868" Properties=species:S:1:pos:R:3:tags:I:1:masses:R:1:momenta:R:3:forces:R:3 KEmax=31.022389213981967 iter=67724 volume=1216.1236359717223 set_wall=T ns_energy=-16.531042911906336 last_walked_iter_clone=67626 energy=-16.61854404214932 stress="0.0225142649080495 -0.002291607266067233 -0.0027843070631347147 -0.002291607266067233 0.020861829151932205 -0.001157315386520278 -0.0027843070631347147 -0.001157315386520278 0.005317196001831433" pbc="T T F"
H        1.40307756       0.81006721      20.00000000        3       1.00000000       0.00000000       0.00000000       0.00000000       0.00000000       0.00000000       0.00000000
H        4.20923268       0.81006721      20.00000000        3       1.00000000       0.00000000       0.00000000       0.00000000       0.00000000       0.00000000       0.00000000
H        0.00000000       3.24026883      20.00000000        3       1.00000000       0.00000000       0.00000000       0.00000000       0.00000000       0.00000000       0.00000000
H        2.80615512       3.24026883      20.00000000        3       1.00000000       0.00000000       0.00000000       0.00000000       0.00000000       0.00000000       0.00000000
H        0.00000000       1.62013441      22.29121606        2       1.00000000       0.00000000       0.00000000       0.00000000       0.00000000       0.00000000       0.00000000
H        2.80615512       1.62013441      22.29121606        2       1.00000000       0.00000000       0.00000000       0.00000000       0.00000000       0.00000000       0.00000000
H        1.40307756       4.05033604      22.29121606        2       1.00000000       0.00000000       0.00000000       0.00000000       0.00000000       0.00000000       0.00000000
H        4.20923268       4.05033604      22.29121606        2       1.00000000       0.00000000       0.00000000       0.00000000       0.00000000       0.00000000       0.00000000
H        0.00000000       0.00000000      24.58243212        1       1.00000000       0.00000000       0.00000000       0.00000000       0.00000000       0.00000000       0.00000000
H        2.80615512       0.00000000      24.58243212        1       1.00000000       0.00000000       0.00000000       0.00000000       0.00000000       0.00000000       0.00000000
H        1.40307756       2.43020162      24.58243212        1       1.00000000       0.00000000       0.00000000       0.00000000       0.00000000       0.00000000       0.00000000
H        4.20923268       2.43020162      24.58243212        1       1.00000000       0.00000000       0.00000000       0.00000000       0.00000000       0.00000000       0.00000000
H        2.89070265       3.06621961      31.24665794        0       1.00000000      -0.11805211       0.02516699      -0.05682802       0.00573630      -0.06414198      -0.04343216
H        4.26744457       4.02705703      28.97620027        0       1.00000000       0.01494362       0.19203612      -0.04879323      -0.11981450      -0.02433811       0.14159111
H        1.51979411       0.61577194      31.21698120        0       1.00000000      -0.12731554       0.01750431       0.02416770      -0.13943221       0.07215537       0.40302432
H        2.85794572       1.60398762      28.90885388        0       1.00000000       0.15575609       0.06536825      -0.00164006       0.14526337       0.01220904      -0.21296353
H       -0.00463050       3.03703848      31.28555689        0       1.00000000      -0.00113917      -0.06122238       0.14863612      -0.18836050      -0.14953979      -0.15213853
H        5.72494799       1.50787965      29.06945965        0       1.00000000       0.08512555      -0.00282305       0.17453049       0.01285989      -0.02414623      -0.12473109
H        5.64112318       3.23053178      26.81462348        0       1.00000000       0.02723961       0.02541361      -0.00389864       0.18858094      -0.22634045       0.19237756
H        2.84020468       3.30644328      26.78329368        0       1.00000000       0.07239673       0.00224130       0.01463639       0.02880156       0.42249186       0.12020225
H        4.30488508       0.84295029      26.79505413        0       1.00000000       0.06246390      -0.17980320      -0.05381431       0.10533944      -0.17643913      -0.22357684
H        1.42690723       0.77213932      26.79100278        0       1.00000000       0.08632538       0.00276153      -0.06843209      -0.04566348      -0.02245293       0.01841039
H        1.50417237       3.95401270      29.02528489        0       1.00000000       0.02283779      -0.06018603       0.02896671       0.12625497      -0.00562710      -0.13590507
H        4.29045723       0.70485977      31.27143470        0       1.00000000      -0.00574767      -0.10750243       0.10125013       0.25135170       0.23214342       0.17004435
24
Lattice="5.612310241546866 0.0 0.0 0.0 4.860403243099165 0.0 0.0 0.0 44.58243212332868" Properties=species:S:1:pos:R:3:tags:I:1:masses:R:1:momenta:R:3:forces:R:3 KEmax=31.022389213981967 iter=67724 volume=1216.1236359717223 set_wall=T ns_energy=-16.529963656096687 last_walked_iter_clone=67448 energy=-16.61854404214932 stress="0.0225142649080495 -0.002291607266067233 -0.0027843070631347147 -0.002291607266067233 0.020861829151932205 -0.001157315386520278 -0.0027843070631347147 -0.001157315386520278 0.005317196001831433" pbc="T T F"
H        1.40307756       0.81006721      20.00000000        3       1.00000000       0.00000000       0.00000000       0.00000000       0.00000000       0.00000000       0.00000000
H        4.20923268       0.81006721      20.00000000        3       1.00000000       0.00000000       0.00000000       0.00000000       0.00000000       0.00000000       0.00000000
H        0.00000000       3.24026883      20.00000000        3       1.00000000       0.00000000       0.00000000       0.00000000       0.00000000       0.00000000       0.00000000
H        2.80615512       3.24026883      20.00000000        3       1.00000000       0.00000000       0.00000000       0.00000000       0.00000000       0.00000000       0.00000000
H        0.00000000       1.62013441      22.29121606        2       1.00000000       0.00000000       0.00000000       0.00000000       0.00000000       0.00000000       0.00000000
H        2.80615512       1.62013441      22.29121606        2       1.00000000       0.00000000       0.00000000       0.00000000       0.00000000       0.00000000       0.00000000
H        1.40307756       4.05033604      22.29121606        2       1.00000000       0.00000000       0.00000000       0.00000000       0.00000000       0.00000000       0.00000000
H        4.20923268       4.05033604      22.29121606        2       1.00000000       0.00000000       0.00000000       0.00000000       0.00000000       0.00000000       0.00000000
H        0.00000000       0.00000000      24.58243212        1       1.00000000       0.00000000       0.00000000       0.00000000       0.00000000       0.00000000       0.00000000
H        2.80615512       0.00000000      24.58243212        1       1.00000000       0.00000000       0.00000000       0.00000000       0.00000000       0.00000000       0.00000000
H        1.40307756       2.43020162      24.58243212        1       1.00000000       0.00000000       0.00000000       0.00000000       0.00000000       0.00000000       0.00000000
H        4.20923268       2.43020162      24.58243212        1       1.00000000       0.00000000       0.00000000       0.00000000       0.00000000       0.00000000       0.00000000
H        2.96145787       3.44010199      31.12639676        0       1.00000000       0.01965655       0.02089270       0.01993279       0.00573630      -0.06414198      -0.04343216
H        4.34352013       4.20021228      28.90832818        0       1.00000000      -0.15797413       0.01495071      -0.05251206      -0.11981450      -0.02433811       0.14159111
H        1.54928742       1.04019136      31.23768808        0       1.00000000      -0.06885804       0.06804589      -0.05810911      -0.13943221       0.07215537       0.40302432
H        2.98922247       1.68774464      28.93957864        0       1.00000000      -0.02769828       0.00810142       0.02767007       0.14526337       0.01220904      -0.21296353
H        0.15357076       3.45520707      31.22356249        0       1.00000000       0.07377047       0.00155178       0.04931348      -0.18836050      -0.14953979      -0.15213853
H        0.17292740       1.74751120      28.99553745        0       1.00000000       0.16882427       0.01953578       0.06196521       0.01285989      -0.02414623      -0.12473109
H        0.10419328       3.31532523      26.81383048        0       1.00000000       0.06343816      -0.14419019      -0.03964563       0.18858094      -0.22634045       0.19237756
H        2.85100052       3.23859516      26.73034585        0       1.00000000       0.03645179       0.11341730       0.15339297       0.02880156       0.42249186       0.12020225
H        4.21387914       0.90531864      26.77591401        0       1.00000000      -0.10263174      -0.02142232       0.09414037       0.10533944      -0.17643913      -0.22357684
H        1.44888516       0.90948565      26.71917255        0       1.00000000      -0.04194645      -0.15615205       0.06578585      -0.04566348      -0.02245293       0.01841039
H        1.51663783       4.20796171      28.95572426        0       1.00000000      -0.02024491      -0.01279847       0.02049224       0.12625497      -0.00562710      -0.13590507
H        4.29518789       0.94245529      31.20629049        0       1.00000000       0.11448039       0.00318612       0.04936346       0.25135170       0.23214342       0.17004435
24
Lattice="5.612310241546866 0.0 0.0 0.0 4.860403243099165 0.0 0.0 0.0 44.58243212332868" Properties=species:S:1:pos:R:3:tags:I:1:masses:R:1:momenta:R:3:forces:R:3 KEmax=31.022389213981967 iter=67724 volume=1216.1236359717223 set_wall=T ns_energy=-16.532576589106764 last_walked_iter_clone=67666 energy=-16.61854404214932 stress="0.0225142649080495 -0.002291607266067233 -0.0027843070631347147 -0.002291607266067233 0.020861829151932205 -0.001157315386520278 -0.0027843070631347147 -0.001157315386520278 0.005317196001831433" pbc="T T F"
H        1.40307756       0.81006721      20.00000000        3       1.00000000       0.00000000       0.00000000       0.00000000       0.00000000       0.00000000       0.00000000
H        4.20923268       0.81006721      20.00000000        3       1.00000000       0.00000000       0.00000000       0.00000000       0.00000000       0.00000000       0.00000000
H        0.00000000       3.24026883      20.00000000        3       1.00000000       0.00000000       0.00000000       0.00000000       0.00000000       0.00000000       0.00000000
H        2.80615512       3.24026883      20.00000000        3       1.00000000       0.00000000       0.00000000       0.00000000       0.00000000       0.00000000       0.00000000
H        0.00000000       1.62013441      22.29121606        2       1.00000000       0.00000000       0.00000000       0.00000000       0.00000000       0.00000000       0.00000000
H        2.80615512       1.62013441      22.29121606        2       1.00000000       0.00000000       0.00000000       0.00000000       0.00000000       0.00000000       0.00000000
H        1.40307756       4.05033604      22.29121606        2       1.00000000       0.00000000       0.00000000       0.00000000       0.00000000       0.00000000       0.00000000
H        4.20923268       4.05033604      22.29121606        2       1.00000000       0.00000000       0.00000000       0.00000000       0.00000000       0.00000000       0.00000000
H        0.00000000       0.00000000      24.58243212        1       1.00000000       0.00000000       0.00000000       0.00000000       0.00000000       0.00000000       0.00000000
H        2.80615512       0.00000000      24.58243212        1       1.00000000       0.00000000       0.00000000       0.00000000       0.00000000       0.00000000       0.00000000
H        1.40307756       2.43020162      24.58243212        1       1.00000000       0.00000000       0.00000000       0.00000000       0.00000000       0.00000000       0.00000000
H        4.20923268       2.43020162      24.58243212        1       1.00000000       0.00000000       0.00000000       0.00000000       0.00000000       0.00000000       0.00000000
H        2.73465000       1.59743352      29.03992788        0       1.00000000       0.13814292      -0.10545626      -0.02234419       0.00573630      -0.06414198      -0.04343216
H        4.14629774       0.86464637      31.29959904        0       1.00000000       0.01114240      -0.02187685      -0.08903061      -0.11981450      -0.02433811       0.14159111
H        1.29914666       3.99427568      28.93999357        0       1.00000000       0.07338993      -0.10707606      -0.15456825      -0.13943221       0.07215537       0.40302432
H        2.80384676       3.15300906      26.73850794        0       1.00000000      -0.01898249      -0.05777620      -0.08774137       0.14526337       0.01220904      -0.21296353
H        1.30420755       0.80201441      31.15122005        0       1.00000000       0.04531516       0.06315016      -0.00006584      -0.18836050      -0.14953979      -0.15213853
H       -0.02132907       1.59788338      28.94637685        0       1.00000000      -0.03492945      -0.03953189      -0.02900939       0.01285989      -0.02414623      -0.12473109
H        5.51754890       3.27434042      31.18652111        0       1.00000000       0.00953615      -0.01771349       0.13144791       0.18858094      -0.22634045       0.19237756
H        4.13244285       3.95644605      28.99610325        0       1.00000000       0.09661859       0.10120169      -0.02848622       0.02880156       0.42249186       0.12020225
H        4.13492614       0.77183475      26.83163361        0       1.00000000      -0.00598447      -0.01766324      -0.04114889       0.10533944      -0.17643913      -0.22357684
H        5.55168607       3.30155595      26.73849248        0       1.00000000       0.10924590       0.05293185      -0.00338678      -0.04566348      -0.02245293       0.01841039
H        2.74276053       3.28605915      31.25101320        0       1.00000000      -0.02670253      -0.05639871       0.01509209       0.12625497      -0.00562710      -0.13590507
H        1.38107641       0.74629509      26.84010126        0       1.00000000      -0.05516817      -0.29394830       0.00449401       0.25135170       0.23214342       0.17004435
24
Lattice="5.612310241546866 0.0 0.0 0.0 4.860403243099165 0.0 0.0 0.0 44.58243212332868" Properties=species:S:1:pos:R:3:tags:I:1:masses:R:1:momenta:R:3:forces:R:3 KEmax=31.022389213981967 iter=67724 volume=1216.1236359717223 set_wall=T ns_energy=-16.533556365303685 last_walked_iter_clone=67638 energy=-16.61854404214932 stress="0.0225142649080495 -0.002291607266067233 -0.0027843070631347147 -0.002291607266067233 0.020861829151932205 -0.001157315386520278 -0.0027843070631347147 -0.001157315386520278 0.005317196001831433" pbc="T T F"
H        1.40307756       0.81006721      20.00000000        3       1.00000000       0.00000000       0.00000000       0.00000000       0.00000000       0.00000000       0.00000000
H        4.20923268       0.81006721      20.00000000        3       1.00000000       0.00000000       0.00000000       0.00000000       0.00000000       0.00000000       0.00000000
H        0.00000000       3.24026883      20.00000000        3       1.00000000       0.00000000       0.00000000       0.00000000       0.00000000       0.00000000       0.00000000
H        2.80615512       3.24026883      20.00000000        3       1.00000000       0.00000000       0.00000000       0.00000000       0.00000000       0.00000000       0.00000000
H        0.00000000       1.62013441      22.29121606        2       1.00000000       0.00000000       0.00000000       0.00000000       0.00000000       0.00000000       0.00000000
H        2.80615512       1.62013441      22.29121606        2       1.00000000       0.00000000       0.00000000       0.00000000       0.00000000       0.00000000       0.00000000
H        1.40307756       4.05033604      22.29121606        2       1.00000000       0.00000000       0.00000000       0.00000000       0.00000000       0.00000000       0.00000000
H        4.20923268       4.05033604      22.29121606        2       1.00000000       0.00000000       0.00000000       0.00000000       0.00000000       0.00000000       0.00000000
H        0.00000000       0.00000000      24.58243212        1       1.00000000       0.00000000       0.00000000       0.00000000       0.00000000       0.00000000       0.00000000
H        2.80615512       0.00000000      24.58243212        1       1.00000000       0.00000000       0.00000000       0.00000000       0.00000000       0.00000000       0.00000000
H        1.40307756       2.43020162      24.58243212        1       1.00000000       0.00000000       0.00000000       0.00000000       0.00000000       0.00000000       0.00000000
H        4.20923268       2.43020162      24.58243212        1       1.00000000       0.00000000       0.00000000       0.00000000       0.00000000       0.00000000       0.00000000
H        2.77294356       3.11746692      31.36175210        0       1.00000000       0.06413537      -0.07745229      -0.20395061       0.00573630      -0.06414198      -0.04343216
H        4.22270291       2.46176271      28.97306694        0       1.00000000      -0.02440447      -0.06124694      -0.01673556      -0.11981450      -0.02433811       0.14159111
H        5.57832665       3.24581312      31.22890896        0       1.00000000      -0.22386523       0.08021889      -0.05417234      -0.13943221       0.07215537       0.40302432
H        2.87209442       0.00179646      28.96754063        0       1.00000000       0.00707044      -0.01760012      -0.13903600       0.14526337       0.01220904      -0.21296353
H        4.15753905       0.76678425      31.30396939        0       1.00000000       0.07864853       0.09919710      -0.05637886      -0.18836050      -0.14953979      -0.15213853
H       -0.00103998       4.89874602      29.02755193        0       1.00000000      -0.10642576      -0.03091360      -0.09450390       0.01285989      -0.02414623      -0.12473109
H        0.00965657       3.18155681      26.78864734        0       1.00000000       0.06597144      -0.01784628      -0.14939038       0.18858094      -0.22634045       0.19237756
H        2.75143919       3.17951332      26.82908583        0       1.00000000       0.01296755       0.16786010       0.06207064       0.02880156       0.42249186       0.12020225
H        4.26958708       0.80570275      26.80165167        0       1.00000000      -0.01815524       0.02565882      -0.05975512       0.10533944      -0.17643913      -0.22357684
H        1.38907361       0.76971603      26.80318825        0       1.00000000       0.11901731      -0.02582666      -0.00732479      -0.04566348      -0.02245293       0.01841039
H        1.43035374       2.48186815      29.05733323        0       1.00000000      -0.03739669       0.06242629       0.01438752       0.12625497      -0.00562710      -0.13590507
H        1.38603969       0.82067645      31.28563656        0       1.00000000      -0.01159726      -0.00398061       0.07393544       0.25135170       0.23214342       0.17004435
24
Lattice="5.612310241546866 0.0 0.0 0.0 4.860403243099165 0.0 0.0 0.0 44.58243212332868" Properties=species:S:1:pos:R:3:tags:I:1:masses:R:1:momenta:R:3:forces:R:3 KEmax=31.022389213981967 iter=67724 volume=1216.1236359717223 set_wall=T ns_energy=-16.530398602437224 last_walked_iter_clone=67610 energy=-16.61854404214932 stress="0.0225142649080495 -0.002291607266067233 -0.0027843070631347147 -0.002291607266067233 0.020861829151932205 -0.001157315386520278 -0.0027843070631347147 -0.001157315386520278 0.005317196001831433" pbc="T T F"
H        1.40307756       0.81006721      20.00000000        3       1.00000000       0.00000000       0.00000000       0.00000000       0.00000000       0.00000000       0.00000000
H        4.20923268       0.81006721      20.00000000        3       1.00000000       0.00000000       0.00000000       0.00000000       0.00000000       0.00000000       0.00000000
H        0.00000000       3.24026883      20.00000000        3       1.00000000       0.00000000       0.00000000       0.00000000       0.00000000       0.00000000       0.00000000
H        2.80615512       3.24026883      20.00000000        3       1.00000000       0.00000000       0.00000000       0.00000000       0.00000000       0.00000000       0.00000000
H        0.00000000       1.62013441      22.29121606        2       1.00000000       0.00000000       0.00000000       0.00000000       0.00000000       0.00000000       0.00000000
H        2.80615512       1.62013441      22.29121606        2       1.00000000       0.00000000       0.00000000       0.00000000       0.00000000       0.00000000       0.00000000
H        1.40307756       4.05033604      22.29121606        2       1.00000000       0.00000000       0.00000000       0.00000000       0.00000000       0.00000000       0.00000000
H        4.20923268       4.05033604      22.29121606        2       1.00000000       0.00000000       0.00000000       0.00000000       0.00000000       0.00000000       0.00000000
H        0.00000000       0.00000000      24.58243212        1       1.00000000       0.00000000       0.00000000       0.00000000       0.00000000       0.00000000       0.00000000
H        2.80615512       0.00000000      24.58243212        1       1.00000000       0.00000000       0.00000000       0.00000000       0.00000000       0.00000000       0.00000000
H        1.40307756       2.43020162      24.58243212        1       1.00000000       0.00000000       0.00000000       0.00000000       0.00000000       0.00000000       0.00000000
H        4.20923268       2.43020162      24.58243212        1       1.00000000       0.00000000       0.00000000       0.00000000       0.00000000       0.00000000       0.00000000
H        2.92142573       3.24304976      31.24106276        0       1.00000000      -0.05731968      -0.00914156       0.11716134       0.00573630      -0.06414198      -0.04343216
H        4.27218832       3.98309536      29.04859217        0       1.00000000      -0.04359149      -0.15874880      -0.01130248      -0.11981450      -0.02433811       0.14159111
H        1.50217404       0.72796133      31.20360164        0       1.00000000       0.00210223       0.02814478       0.19585778      -0.13943221       0.07215537       0.40302432
H        2.89144331       1.67339966      29.04007491        0       1.00000000       0.03933419       0.00733865      -0.08751343       0.14526337       0.01220904      -0.21296353
H        0.14484367       3.15090204      31.28562637        0       1.00000000      -0.06775439      -0.05904477       0.00025740      -0.18836050      -0.14953979      -0.15213853
H        0.03418655       1.58150659      29.04850694        0       1.00000000      -0.00348778       0.01151422      -0.18881080       0.01285989      -0.02414623      -0.12473109
H        0.03964980       3.21747104      26.80425996        0       1.00000000       0.07428759       0.09949538       0.17839499       0.18858094      -0.22634045       0.19237756
H        2.89664809       3.17838486      26.80251940        0       1.00000000      -0.08348772       0.00732199       0.09958368       0.02880156       0.42249186       0.12020225
H        4.26174796       0.73169400      26.83165339        0       1.00000000       0.08571288       0.09634634      -0.09655225       0.10533944      -0.17643913      -0.22357684
H        1.45018802       0.73492230      26.80626559        0       1.00000000      -0.17730717      -0.05229295       0.10054171      -0.04566348      -0.02245293       0.01841039
H        1.47147605       4.02911849      29.09226474        0       1.00000000       0.09776972       0.01218316       0.05758274       0.12625497      -0.00562710      -0.13590507
H        4.28644161       0.72893413      31.29214477        0       1.00000000       0.01127345       0.06820190       0.07537389       0.25135170       0.23214342       0.17004435
24
Lattice="5.612310241546866 0.0 0.0 0.0 4.860403243099165 0.0 0.0 0.0 44.58243212332868" Properties=species:S:1:pos:R:3:tags:I:1:masses:R:1:momenta:R:3:forces:R:3 KEmax=31.022389213981967 iter=67724 volume=1216.1236359717223 set_wall=T ns_energy=-16.53455270016636 last_walked_iter_clone=67614 energy=-16.61854404214932 stress="0.0225142649080495 -0.002291607266067233 -0.0027843070631347147 -0.002291607266067233 0.020861829151932205 -0.001157315386520278 -0.0027843070631347147 -0.001157315386520278 0.005317196001831433" pbc="T T F"
H        1.40307756       0.81006721      20.00000000        3       1.00000000       0.00000000       0.00000000       0.00000000       0.00000000       0.00000000       0.00000000
H        4.20923268       0.81006721      20.00000000        3       1.00000000       0.00000000       0.00000000       0.00000000       0.00000000       0.00000000       0.00000000
H        0.00000000       3.24026883      20.00000000        3       1.00000000       0.00000000       0.00000000       0.00000000       0.00000000       0.00000000       0.00000000
H        2.80615512       3.24026883      20.00000000        3       1.00000000       0.00000000       0.00000000       0.00000000       0.00000000       0.00000000       0.00000000
H        0.00000000       1.62013441      22.29121606        2       1.00000000       0.00000000       0.00000000       0.00000000       0.00000000       0.00000000       0.00000000
H        2.80615512       1.62013441      22.29121606        2       1.00000000       0.00000000       0.00000000       0.00000000       0.00000000       0.00000000       0.00000000
H        1.40307756       4.05033604      22.29121606        2       1.00000000       0.00000000       0.00000000       0.00000000       0.00000000       0.00000000       0.00000000
H        4.20923268       4.05033604      22.29121606        2       1.00000000       0.00000000       0.00000000       0.00000000       0.00000000       0.00000000       0.00000000
H        0.00000000       0.00000000      24.58243212        1       1.00000000       0.00000000       0.00000000       0.00000000       0.00000000       0.00000000       0.00000000
H        2.80615512       0.00000000      24.58243212        1       1.00000000       0.00000000       0.00000000       0.00000000       0.00000000       0.00000000       0.00000000
H        1.40307756       2.43020162      24.58243212        1       1.00000000       0.00000000       0.00000000       0.00000000       0.00000000       0.00000000       0.00000000
H        4.20923268       2.43020162      24.58243212        1       1.00000000       0.00000000       0.00000000       0.00000000       0.00000000       0.00000000       0.00000000
H        2.89690868       3.25337790      31.24522297        0       1.00000000      -0.05950265      -0.18556773      -0.04177968       0.00573630      -0.06414198      -0.04343216
H        4.27430449       4.11868035      28.93322232        0       1.00000000       0.07797704       0.12054112       0.02528427      -0.11981450      -0.02433811       0.14159111
H        1.49582098       0.72757131      31.23953397        0       1.00000000      -0.00919539       0.08841401      -0.10372257      -0.13943221       0.07215537       0.40302432
H        2.81466676       1.68402394      28.99371527        0       1.00000000      -0.04996599      -0.10682927      -0.10395252       0.14526337       0.01220904      -0.21296353
H        0.07809961       3.21718068      31.18922219        0       1.00000000       0.05381228      -0.08816247      -0.11928199      -0.18836050      -0.14953979      -0.15213853
H        0.10401608       1.73905213      28.97864351        0       1.00000000       0.03862038       0.02987091      -0.06566637       0.01285989      -0.02414623      -0.12473109
H       -0.04057198       3.22907441      26.79850176        0       1.00000000      -0.06795645      -0.03846532       0.05928646       0.18858094      -0.22634045       0.19237756
H        2.82418093       3.25277873      26.82084582        0       1.00000000      -0.07386889       0.05428482      -0.03394432       0.02880156       0.42249186       0.12020225
H        4.20543663       0.75848989      26.80830023        0       1.00000000       0.20971579       0.11119955      -0.01003573       0.10533944      -0.17643913      -0.22357684
H        1.45419726       0.83404728      26.77241273        0       1.00000000      -0.03451419       0.04337864      -0.15975016      -0.04566348      -0.02245293       0.01841039
H        1.45364677       4.13459480      28.99455239        0       1.00000000      -0.00210458      -0.00588428      -0.05834262       0.12625497      -0.00562710      -0.13590507
H        4.29595007       0.85051205      31.15825067        0       1.00000000      -0.10502985      -0.09082956       0.03281588       0.25135170       0.23214342       0.17004435
24
Lattice="5.612310241546866 0.0 0.0 0.0 4.860403243099165 0.0 0.0 0.0 44.58243212332868" Properties=species:S:1:pos:R:3:tags:I:1:masses:R:1:momenta:R:3:forces:R:3 KEmax=31.022389213981967 iter=67724 volume=1216.1236359717223 set_wall=T ns_energy=-16.53452182226743 last_walked_iter_clone=67340 energy=-16.61854404214932 stress="0.0225142649080495 -0.002291607266067233 -0.0027843070631347147 -0.002291607266067233 0.020861829151932205 -0.001157315386520278 -0.0027843070631347147 -0.001157315386520278 0.005317196001831433" pbc="T T F"