24
Lattice="5.612310241546866 0.0 0.0 0.0 4.860403243099165 0.0 0.0 0.0 44.58243212332868" Properties=species:S:1:pos:R:3:tags:I:1:masses:R:1:momenta:R:3:forces:R:3 KEmax=31.022389213981967 iter=100127 volume=1216.1236359717223 set_wall=T ns_energy=-16.760625071925183 last_walked_iter_clone=99934 energy=-16.767950230555456 stress="0.02466528887945182 -5.291081390189992e-05 0.00025075654784151985 -5.291081390189992e-05 0.02422382876426124 5.4223605377877296e-05 0.00025075654784151985 5.4223605377877296e-05 0.009286553614009865" pbc="T T F"
H        1.40307756       0.81006721      20.00000000        3       1.00000000       0.00000000       0.00000000       0.00000000       0.00000000       0.00000000       0.00000000
H        4.20923268       0.81006721      20.00000000        3       1.00000000       0.00000000       0.00000000       0.00000000       0.00000000       0.00000000       0.00000000
H        0.00000000       3.24026883      20.00000000        3       1.00000000       0.00000000       0.00000000       0.00000000       0.00000000       0.00000000       0.00000000
H        2.80615512       3.24026883      20.00000000        3       1.00000000       0.00000000       0.00000000       0.00000000       0.00000000       0.00000000       0.00000000
H        0.00000000       1.62013441      22.29121606        2       1.00000000       0.00000000       0.00000000       0.00000000       0.00000000       0.00000000       0.00000000
H        2.80615512       1.62013441      22.29121606        2       1.00000000       0.00000000       0.00000000       0.00000000       0.00000000       0.00000000       0.00000000
H        1.40307756       4.05033604      22.29121606        2       1.00000000       0.00000000       0.00000000       0.00000000       0.00000000       0.00000000       0.00000000
H        4.20923268       4.05033604      22.29121606        2       1.00000000       0.00000000       0.00000000       0.00000000       0.00000000       0.00000000       0.00000000
H        0.00000000       0.00000000      24.58243212        1       1.00000000       0.00000000       0.00000000       0.00000000       0.00000000       0.00000000       0.00000000
H        2.80615512       0.00000000      24.58243212        1       1.00000000       0.00000000       0.00000000       0.00000000       0.00000000       0.00000000       0.00000000
H        1.40307756       2.43020162      24.58243212        1       1.00000000       0.00000000       0.00000000       0.00000000       0.00000000       0.00000000       0.00000000
H        4.20923268       2.43020162      24.58243212        1       1.00000000       0.00000000       0.00000000       0.00000000       0.00000000       0.00000000       0.00000000
H        1.41920914       2.43535096      28.98003986        0       1.00000000      -0.01159261       0.01077815       0.00878103       0.03214229       0.04700462      -0.06080084
H        0.00758868       1.63389299      31.21906885        0       1.00000000       0.00322809      -0.01896647       0.02962256      -0.08075344      -0.03068754       0.04042249
H        5.61814991       0.00263198      28.99883561        0       1.00000000       0.01469128       0.00042499       0.00924903       0.02793084      -0.06709071      -0.01920359
H        1.41847015       4.05926418      26.79139976        0       1.00000000      -0.03102708       0.00575649       0.04374673      -0.02822752      -0.02050408       0.03306637
H        2.82147303       1.65241773      31.21695251        0       1.00000000      -0.01389981       0.00952079       0.04669069       0.03051164       0.02077099      -0.06536998
H        4.23105387       2.43421806      28.99795228        0       1.00000000      -0.01969554       0.01978849       0.01150771      -0.04273221      -0.07979636       0.02645933
H        1.42248578       4.07967660      31.20236423        0       1.00000000      -0.00631305      -0.05273931      -0.01007280       0.01756954       0.00342596       0.01251716
H        2.82691861       0.01837341      28.99266777        0       1.00000000      -0.05648040       0.02014757      -0.00104943       0.02245796       0.06165033       0.05198594
H        2.83543813       1.63450624      26.77489685        0       1.00000000       0.00986133       0.00380747       0.01261361       0.00386215       0.04729211      -0.00681514
H        4.22624468       4.05593201      26.78980675        0       1.00000000      -0.02120297      -0.02441153       0.01453597       0.06969064      -0.02671623      -0.03985900
H        4.22264654       4.06362998      31.25368615        0       1.00000000       0.01886473       0.00348179       0.05322923      -0.01662917       0.01576766       0.05205369
H        5.62265965       1.61623326      26.78335439        0       1.00000000       0.00714084       0.01798818       0.03455373      -0.01250846       0.04111926      -0.10260559
24
Lattice="5.612310241546866 0.0 0.0 0.0 4.860403243099165 0.0 0.0 0.0 44.58243212332868" Properties=species:S:1:pos:R:3:tags:I:1:masses:R:1:momenta:R:3:forces:R:3 KEmax=31.022389213981967 iter=100127 volume=1216.1236359717223 set_wall=T ns_energy=-16.76048028198843 last_walked_iter_clone=99765 energy=-16.767950230555456 stress="0.02466528887945182 -5.291081390189992e-05 0.00025075654784151985 -5.291081390189992e-05 0.02422382876426124 5.4223605377877296e-05 0.00025075654784151985 5.4223605377877296e-05 0.009286553614009865" pbc="T T F"
H        1.40307756       0.81006721      20.00000000        3       1.00000000       0.00000000       0.00000000       0.00000000       0.00000000       0.00000000       0.00000000
H        4.20923268       0.81006721      20.00000000        3       1.00000000       0.00000000       0.00000000       0.00000000       0.00000000       0.00000000       0.00000000
H        0.00000000       3.24026883      20.00000000        3       1.00000000       0.00000000       0.00000000       0.00000000       0.00000000       0.00000000       0.00000000
H        2.80615512       3.24026883      20.00000000        3       1.00000000       0.00000000       0.00000000       0.00000000       0.00000000       0.00000000       0.00000000
H        0.00000000       1.62013441      22.29121606        2       1.00000000       0.00000000       0.00000000       0.00000000       0.00000000       0.00000000       0.00000000
H        2.80615512       1.62013441      22.29121606        2       1.00000000       0.00000000       0.00000000       0.00000000       0.00000000       0.00000000       0.00000000
H        1.40307756       4.05033604      22.29121606        2       1.00000000       0.00000000       0.00000000       0.00000000       0.00000000       0.00000000       0.00000000
H        4.20923268       4.05033604      22.29121606        2       1.00000000       0.00000000       0.00000000       0.00000000       0.00000000       0.00000000       0.00000000
H        0.00000000       0.00000000      24.58243212        1       1.00000000       0.00000000       0.00000000       0.00000000       0.00000000       0.00000000       0.00000000
H        2.80615512       0.00000000      24.58243212        1       1.00000000       0.00000000       0.00000000       0.00000000       0.00000000       0.00000000       0.00000000
H        1.40307756       2.43020162      24.58243212        1       1.00000000       0.00000000       0.00000000       0.00000000       0.00000000       0.00000000       0.00000000
H        4.20923268       2.43020162      24.58243212        1       1.00000000       0.00000000       0.00000000       0.00000000       0.00000000       0.00000000       0.00000000
H        1.41019788       2.41471138      28.99139911        0       1.00000000       0.00615780      -0.00992654      -0.01310461       0.03214229       0.04700462      -0.06080084
H        5.59798079       1.59775024      31.21765829        0       1.00000000      -0.03596934       0.00828561      -0.00963431      -0.08075344      -0.03068754       0.04042249
H        5.59799753       4.85236825      28.99886299        0       1.00000000       0.03001983       0.01616972      -0.01137717       0.02793084      -0.06709071      -0.01920359
H        1.38233743       4.03342911      26.77207841        0       1.00000000       0.02097988       0.00590275      -0.02536897      -0.02822752      -0.02050408       0.03306637
H        2.79296892       1.60056545      31.23711135        0       1.00000000       0.01280394       0.00116746       0.00230768       0.03051164       0.02077099      -0.06536998
H        4.19579001       2.40047987      29.01415550        0       1.00000000       0.04736654       0.01278167       0.00490371      -0.04273221      -0.07979636       0.02645933
H        1.39800462       4.04794193      31.21500725        0       1.00000000       0.02158969      -0.00227829      -0.02548980       0.01756954       0.00342596       0.01251716
H        2.80263016       4.83494637      28.99207079        0       1.00000000       0.02366850       0.00912990       0.00782614       0.02245796       0.06165033       0.05198594
H        2.82056100       1.61234425      26.79938535        0       1.00000000       0.03905919       0.01584478      -0.03382450       0.00386215       0.04729211      -0.00681514
H        4.20869515       4.01901026      26.78549754        0       1.00000000      -0.00776642      -0.00407931       0.01983182       0.06969064      -0.02671623      -0.03985900
H        4.22429309       4.03206626      31.22837340        0       1.00000000       0.00553105      -0.00753570       0.01263155      -0.01662917       0.01576766       0.05205369
H        5.61817966       1.62979527      26.80222128        0       1.00000000       0.01896857      -0.01091513       0.00764509      -0.01250846       0.04111926      -0.10260559
24
Lattice="5.612310241546866 0.0 0.0 0.0 4.860403243099165 0.0 0.0 0.0 44.58243212332868" Properties=species:S:1:pos:R:3:tags:I:1:masses:R:1:momenta:R:3:forces:R:3 KEmax=31.022389213981967 iter=100127 volume=1216.1236359717223 set_wall=T ns_energy=-16.760481571283645 last_walked_iter_clone=99837 energy=-16.767950230555456 stress="0.02466528887945182 -5.291081390189992e-05 0.00025075654784151985 -5.291081390189992e-05 0.02422382876426124 5.4223605377877296e-05 0.00025075654784151985 5.4223605377877296e-05 0.009286553614009865" pbc="T T F"
H        1.40307756       0.81006721      20.00000000        3       1.00000000       0.00000000       0.00000000       0.00000000       0.00000000       0.00000000       0.00000000
H        4.20923268       0.81006721      20.00000000        3       1.00000000       0.00000000       0.00000000       0.00000000       0.00000000       0.00000000       0.00000000
H        0.00000000       3.24026883      20.00000000        3       1.00000000       0.00000000       0.00000000       0.00000000       0.00000000       0.00000000       0.00000000
H        2.80615512       3.24026883      20.00000000        3       1.00000000       0.00000000       0.00000000       0.00000000       0.00000000       0.00000000       0.00000000
H        0.00000000       1.62013441      22.29121606        2       1.00000000       0.00000000       0.00000000       0.00000000       0.00000000       0.00000000       0.00000000
H        2.80615512       1.62013441      22.29121606        2       1.00000000       0.00000000       0.00000000       0.00000000       0.00000000       0.00000000       0.00000000
H        1.40307756       4.05033604      22.29121606        2       1.00000000       0.00000000       0.00000000       0.00000000       0.00000000       0.00000000       0.00000000
H        4.20923268       4.05033604      22.29121606        2       1.00000000       0.00000000       0.00000000       0.00000000       0.00000000       0.00000000       0.00000000
H        0.00000000       0.00000000      24.58243212        1       1.00000000       0.00000000       0.00000000       0.00000000       0.00000000       0.00000000       0.00000000
H        2.80615512       0.00000000      24.58243212        1       1.00000000       0.00000000       0.00000000       0.00000000       0.00000000       0.00000000       0.00000000
H        1.40307756       2.43020162      24.58243212        1       1.00000000       0.00000000       0.00000000       0.00000000       0.00000000       0.00000000       0.00000000
H        4.20923268       2.43020162      24.58243212        1       1.00000000       0.00000000       0.00000000       0.00000000       0.00000000       0.00000000       0.00000000
H        1.43489911       2.41166088      28.99669673        0       1.00000000       0.00946282       0.02608774      -0.02708075       0.03214229       0.04700462      -0.06080084
H        5.64971084       1.59449818      31.23776454        0       1.00000000       0.03638347      -0.01545677      -0.01620897      -0.08075344      -0.03068754       0.04042249
H        5.64748624       4.85605357      29.00298773        0       1.00000000      -0.03606525       0.01390342       0.00022479       0.02793084      -0.06709071      -0.01920359
H        1.41832802       4.05285081      26.81131299        0       1.00000000       0.02351497      -0.02425448      -0.03821932      -0.02822752      -0.02050408       0.03306637
H        2.86188454       1.62591375      31.22784108        0       1.00000000       0.03315746      -0.01029802       0.00329873       0.03051164       0.02077099      -0.06536998
H        4.24973180       2.42020086      29.00427223        0       1.00000000       0.00016602       0.02614683       0.00821171      -0.04273221      -0.07979636       0.02645933
H        1.44090247       4.03980853      31.22844695        0       1.00000000       0.05793652      -0.01187828      -0.01308928       0.01756954       0.00342596       0.01251716
H        2.83303066       4.84208357      29.01997468        0       1.00000000       0.03534799       0.01110109       0.00264169       0.02245796       0.06165033       0.05198594
H        2.81465120       1.61419959      26.79648301        0       1.00000000      -0.00040943      -0.00211862      -0.02492992       0.00386215       0.04729211      -0.00681514
H        4.21825363       4.04891517      26.80517790        0       1.00000000       0.00837492      -0.01984786      -0.00061718       0.06969064      -0.02671623      -0.03985900
H        4.25015782       4.03822336      31.24801709        0       1.00000000       0.01462658      -0.00212387      -0.01830021      -0.01662917       0.01576766       0.05205369
H        0.02739232       1.61650356      26.77682978        0       1.00000000       0.02780188       0.00837911      -0.03958023      -0.01250846       0.04111926      -0.10260559
24
Lattice="5.612310241546866 0.0 0.0 0.0 4.860403243099165 0.0 0.0 0.0 44.58243212332868" Properties=species:S:1:pos:R:3:tags:I:1:masses:R:1:momenta:R:3:forces:R:3 KEmax=31.022389213981967 iter=100127 volume=1216.1236359717223 set_wall=T ns_energy=-16.76013998324443 last_walked_iter_clone=99890 energy=-16.767950230555456 stress="0.02466528887945182 -5.291081390189992e-05 0.00025075654784151985 -5.291081390189992e-05 0.02422382876426124 5.4223605377877296e-05 0.00025075654784151985 5.4223605377877296e-05 0.009286553614009865" pbc="T T F"
H        1.40307756       0.81006721      20.00000000        3       1.00000000       0.00000000       0.00000000       0.00000000       0.00000000       0.00000000       0.00000000
H        4.20923268       0.81006721      20.00000000        3       1.00000000       0.00000000       0.00000000       0.00000000       0.00000000       0.00000000       0.00000000
H        0.00000000       3.24026883      20.00000000        3       1.00000000       0.00000000       0.00000000       0.00000000       0.00000000       0.00000000       0.00000000
H        2.80615512       3.24026883      20.00000000        3       1.00000000       0.00000000       0.00000000       0.00000000       0.00000000       0.00000000       0.00000000
H        0.00000000       1.62013441      22.29121606        2       1.00000000       0.00000000       0.00000000       0.00000000       0.00000000       0.00000000       0.00000000
H        2.80615512       1.62013441      22.29121606        2       1.00000000       0.00000000       0.00000000       0.00000000       0.00000000       0.00000000       0.00000000
H        1.40307756       4.05033604      22.29121606        2       1.00000000       0.00000000       0.00000000       0.00000000       0.00000000       0.00000000       0.00000000
H        4.20923268       4.05033604      22.29121606        2       1.00000000       0.00000000       0.00000000       0.00000000       0.00000000       0.00000000       0.00000000
H        0.00000000       0.00000000      24.58243212        1       1.00000000       0.00000000       0.00000000       0.00000000       0.00000000       0.00000000       0.00000000
H        2.80615512       0.00000000      24.58243212        1       1.00000000       0.00000000       0.00000000       0.00000000       0.00000000       0.00000000       0.00000000
H        1.40307756       2.43020162      24.58243212        1       1.00000000       0.00000000       0.00000000       0.00000000       0.00000000       0.00000000       0.00000000
H        4.20923268       2.43020162      24.58243212        1       1.00000000       0.00000000       0.00000000       0.00000000       0.00000000       0.00000000       0.00000000
H        1.37624004       2.45614111      29.00241498        0       1.00000000      -0.02050667      -0.00218084       0.01013177       0.03214229       0.04700462      -0.06080084
H        5.59075987       1.65700740      31.21343047        0       1.00000000      -0.01268721       0.02240115      -0.01462274      -0.08075344      -0.03068754       0.04042249
H        5.57137096       0.02198347      29.00438695        0       1.00000000      -0.02116979      -0.00093816      -0.00236440       0.02793084      -0.06709071      -0.01920359
H        1.39035199       4.06959128      26.79328937        0       1.00000000      -0.02601102      -0.04692694      -0.01674916      -0.02822752      -0.02050408       0.03306637
H        2.79570014       1.63598790      31.24300326        0       1.00000000       0.00510164      -0.02240746      -0.00773657       0.03051164       0.02077099      -0.06536998
H        4.18792429       2.44777203      29.01012445        0       1.00000000       0.01620032      -0.01507001       0.01166406      -0.04273221      -0.07979636       0.02645933
H        1.38831088       4.07805396      31.25799693        0       1.00000000      -0.00807701      -0.00766182      -0.00077293       0.01756954       0.00342596       0.01251716
H        2.79186943       0.04035343      29.01021200        0       1.00000000       0.05251636      -0.02452324       0.01809062       0.02245796       0.06165033       0.05198594
H        2.79183599       1.64908809      26.78419989        0       1.00000000      -0.01139947      -0.00074245       0.01052156       0.00386215       0.04729211      -0.00681514
H        4.18324266       4.06808244      26.81814711        0       1.00000000      -0.00124094       0.03016035       0.01373595       0.06969064      -0.02671623      -0.03985900
H        4.18714876       4.07412719      31.22934776        0       1.00000000       0.01063447      -0.02964947       0.00382569      -0.01662917       0.01576766       0.05205369
H       -0.03043856       1.63109743      26.79480610        0       1.00000000      -0.02080949      -0.03618201       0.01183253      -0.01250846       0.04111926      -0.10260559
24
Lattice="5.612310241546866 0.0 0.0 0.0 4.860403243099165 0.0 0.0 0.0 44.58243212332868" Properties=species:S:1:pos:R:3:tags:I:1:masses:R:1:momenta:R:3:forces:R:3 KEmax=31.022389213981967 iter=100127 volume=1216.1236359717223 set_wall=T ns_energy=-16.76024859957134 last_walked_iter_clone=99989 energy=-16.767950230555456 stress="0.02466528887945182 -5.291081390189992e-05 0.00025075654784151985 -5.291081390189992e-05 0.02422382876426124 5.4223605377877296e-05 0.00025075654784151985 5.4223605377877296e-05 0.009286553614009865" pbc="T T F"
H        1.40307756       0.81006721      20.00000000        3       1.00000000       0.00000000       0.00000000       0.00000000       0.00000000       0.00000000       0.00000000
H        4.20923268       0.81006721      20.00000000        3       1.00000000       0.00000000       0.00000000       0.00000000       0.00000000       0.00000000       0.00000000
H        0.00000000       3.24026883      20.00000000        3       1.00000000       0.00000000       0.00000000       0.00000000       0.00000000       0.00000000       0.00000000
H        2.80615512       3.24026883      20.00000000        3       1.00000000       0.00000000       0.00000000       0.00000000       0.00000000       0.00000000       0.00000000
H        0.00000000       1.62013441      22.29121606        2       1.00000000       0.00000000       0.00000000       0.00000000       0.00000000       0.00000000       0.00000000
H        2.80615512       1.62013441      22.29121606        2       1.00000000       0.00000000       0.00000000       0.00000000       0.00000000       0.00000000       0.00000000
H        1.40307756       4.05033604      22.29121606        2       1.00000000       0.00000000       0.00000000       0.00000000       0.00000000       0.00000000       0.00000000
H        4.20923268       4.05033604      22.29121606        2       1.00000000       0.00000000       0.00000000       0.00000000       0.00000000       0.00000000       0.00000000
H        0.00000000       0.00000000      24.58243212        1       1.00000000       0.00000000       0.00000000       0.00000000       0.00000000       0.00000000       0.00000000
H        2.80615512       0.00000000      24.58243212        1       1.00000000       0.00000000       0.00000000       0.00000000       0.00000000       0.00000000       0.00000000
H        1.40307756       2.43020162      24.58243212        1       1.00000000       0.00000000       0.00000000       0.00000000       0.00000000       0.00000000       0.00000000
H        4.20923268       2.43020162      24.58243212        1       1.00000000       0.00000000       0.00000000       0.00000000       0.00000000       0.00000000       0.00000000
H        1.39039903       2.41976922      28.98533543        0       1.00000000      -0.00685239       0.00346862       0.02583621       0.03214229       0.04700462      -0.06080084
H        0.00329877       1.62081667      31.19619468        0       1.00000000       0.00422192      -0.02871599      -0.01685840      -0.08075344      -0.03068754       0.04042249
H        5.62412151      -0.01103734      28.99927622        0       1.00000000       0.01148984       0.00060384       0.02076874       0.02793084      -0.06709071      -0.01920359
H        1.38341046       4.06577974      26.77916373        0       1.00000000       0.01859018      -0.00686432      -0.00210667      -0.02822752      -0.02050408       0.03306637
H        2.82048055       1.61417994      31.21463089        0       1.00000000      -0.01898867      -0.01400553       0.00277945       0.03051164       0.02077099      -0.06536998
H        4.18723042       2.43616497      28.98262735        0       1.00000000       0.02476220      -0.00806505      -0.00318185      -0.04273221      -0.07979636       0.02645933
H        1.42326630       4.05293284      31.20534035        0       1.00000000      -0.00408463       0.01096130       0.01617753       0.01756954       0.00342596       0.01251716
H        2.80820397      -0.01711303      28.97218673        0       1.00000000       0.00979027       0.03839937       0.01299801       0.02245796       0.06165033       0.05198594
H        2.79075356       1.61917178      26.78318447        0       1.00000000       0.00632636      -0.04751086      -0.00886796       0.00386215       0.04729211      -0.00681514
H        4.20901650       4.02748048      26.78683182        0       1.00000000      -0.02136173      -0.00549928      -0.02262993       0.06969064      -0.02671623      -0.03985900
H        4.22096256       4.04856447      31.23105344        0       1.00000000      -0.01504831       0.03640512      -0.00648767      -0.01662917       0.01576766       0.05205369
H        5.60693879       1.61124882      26.76760994        0       1.00000000       0.01715446      -0.06004568       0.00429052      -0.01250846       0.04111926      -0.10260559
24
Lattice="5.612310241546866 0.0 0.0 0.0 4.860403243099165 0.0 0.0 0.0 44.58243212332868" Properties=species:S:1:pos:R:3:tags:I:1:masses:R:1:momenta:R:3:forces:R:3 KEmax=31.022389213981967 iter=100127 volume=1216.1236359717223 set_wall=T ns_energy=-16.76042723059245 last_walked_iter_clone=99994 energy=-16.767950230555456 stress="0.02466528887945182 -5.291081390189992e-05 0.00025075654784151985 -5.291081390189992e-05 0.02422382876426124 5.4223605377877296e-05 0.00025075654784151985 5.4223605377877296e-05 0.009286553614009865" pbc="T T F"
H        1.40307756       0.81006721      20.00000000        3       1.00000000       0.00000000       0.00000000       0.00000000       0.00000000       0.00000000       0.00000000
H        4.20923268       0.81006721      20.00000000        3       1.00000000       0.00000000       0.00000000       0.00000000       0.00000000       0.00000000       0.00000000
H        0.00000000       3.24026883      20.00000000        3       1.00000000       0.00000000       0.00000000       0.00000000       0.00000000       0.00000000       0.00000000
H        2.80615512       3.24026883      20.00000000        3       1.00000000       0.00000000       0.00000000       0.00000000       0.00000000       0.00000000       0.00000000
H        0.00000000       1.62013441      22.29121606        2       1.00000000       0.00000000       0.00000000       0.00000000       0.00000000       0.00000000       0.00000000
H        2.80615512       1.62013441      22.29121606        2       1.00000000       0.00000000       0.00000000       0.00000000       0.00000000       0.00000000       0.00000000
H        1.40307756       4.05033604      22.29121606        2       1.00000000       0.00000000       0.00000000       0.00000000       0.00000000       0.00000000       0.00000000
H        4.20923268       4.05033604      22.29121606        2       1.00000000       0.00000000       0.00000000       0.00000000       0.00000000       0.00000000       0.00000000
H        0.00000000       0.00000000      24.58243212        1       1.00000000       0.00000000       0.00000000       0.00000000       0.00000000       0.00000000       0.00000000
H        2.80615512       0.00000000      24.58243212        1       1.00000000       0.00000000       0.00000000       0.00000000       0.00000000       0.00000000       0.00000000
H        1.40307756       2.43020162      24.58243212        1       1.00000000       0.00000000       0.00000000       0.00000000       0.00000000       0.00000000       0.00000000
H        4.20923268       2.43020162      24.58243212        1       1.00000000       0.00000000       0.00000000       0.00000000       0.00000000       0.00000000       0.00000000
H        1.38122960       2.42430572      28.99632125        0       1.00000000       0.00449262       0.00568486       0.01301958       0.03214229       0.04700462      -0.06080084
H        5.58960634       1.60503252      31.21089221        0       1.00000000       0.00274808       0.04057375      -0.00402019      -0.08075344      -0.03068754       0.04042249
H        5.58621002       4.85640897      29.00190446        0       1.00000000      -0.02416973       0.00290690       0.01901749       0.02793084      -0.06709071      -0.01920359
H        1.38803183       4.05758563      26.79597213        0       1.00000000      -0.00913049      -0.02777664      -0.01939062      -0.02822752      -0.02050408       0.03306637
H        2.77303154       1.60072812      31.23167821        0       1.00000000       0.00830035       0.00852890       0.01068952       0.03051164       0.02077099      -0.06536998
H        4.19543030       2.42357246      29.00571037        0       1.00000000       0.01851263       0.00171598       0.04283189      -0.04273221      -0.07979636       0.02645933
H        1.37049840       4.04104344      31.25163903        0       1.00000000       0.02194210      -0.00357007       0.03776857       0.01756954       0.00342596       0.01251716
H        2.77979763       4.85521712      29.02334327        0       1.00000000      -0.03080246       0.00135154      -0.01839003       0.02245796       0.06165033       0.05198594
H        2.78276776       1.60099616      26.79955857        0       1.00000000      -0.02856125      -0.02537158       0.03851106       0.00386215       0.04729211      -0.00681514
H        4.19523510       4.06168673      26.80386801        0       1.00000000      -0.00794847      -0.03452810      -0.00113314       0.06969064      -0.02671623      -0.03985900
H        4.15399693       4.04111000      31.24429383        0       1.00000000       0.01256375       0.03462564      -0.01272057      -0.01662917       0.01576766       0.05205369
H       -0.01691509       1.62974392      26.77740322        0       1.00000000      -0.01728781       0.03772033      -0.00391538      -0.01250846       0.04111926      -0.10260559
24