24
Lattice="5.612310241546866 0.0 0.0 0.0 4.860403243099165 0.0 0.0 0.0 44.58243212332868" Properties=species:S:1:pos:R:3:tags:I:1:masses:R:1:momenta:R:3 KEmax=31.022389213981967 iter=99 volume=1216.1236359717223 set_wall=T ns_energy=608941.0411627712 ns_P=0.0 config_n_global=99 ns_KE=14.766107052497535 pbc="T T F"
H        1.40307756       0.81006721      20.00000000        3       1.00000000       0.00000000       0.00000000       0.00000000
H        4.20923268       0.81006721      20.00000000        3       1.00000000       0.00000000       0.00000000       0.00000000
H        0.00000000       3.24026883      20.00000000        3       1.00000000       0.00000000       0.00000000       0.00000000
H        2.80615512       3.24026883      20.00000000        3       1.00000000       0.00000000       0.00000000       0.00000000
H        0.00000000       1.62013441      22.29121606        2       1.00000000       0.00000000       0.00000000       0.00000000
H        2.80615512       1.62013441      22.29121606        2       1.00000000       0.00000000       0.00000000       0.00000000
H        1.40307756       4.05033604      22.29121606        2       1.00000000       0.00000000       0.00000000       0.00000000
H        4.20923268       4.05033604      22.29121606        2       1.00000000       0.00000000       0.00000000       0.00000000
H        0.00000000       0.00000000      24.58243212        1       1.00000000       0.00000000       0.00000000       0.00000000
H        2.80615512       0.00000000      24.58243212        1       1.00000000       0.00000000       0.00000000       0.00000000
H        1.40307756       2.43020162      24.58243212        1       1.00000000       0.00000000       0.00000000       0.00000000
H        4.20923268       2.43020162      24.58243212        1       1.00000000       0.00000000       0.00000000       0.00000000
H        2.87608494       0.31717412      32.81667784        0       1.00000000       0.22828421       0.77504141      -0.87142454
H        0.75511214       0.62261022      28.64818144        0       1.00000000      -0.91795374      -0.53801197       0.19175691
H        2.13371367       4.31967982      29.48893202        0       1.00000000       2.10819152      -0.31079130       1.58746877
H        3.20831507       0.95937465      32.57200948        0       1.00000000      -1.07066575       0.11583043      -0.00466212
H        5.07601462       2.33797269      35.08341233        0       1.00000000      -0.67315719       1.17612791      -0.77559473
H        3.54608293       4.58022448      30.21665779        0       1.00000000       1.38022166       0.79700377       0.20364057
H        4.51669129       0.47516535      37.19091365        0       1.00000000      -0.47259720       0.85939009       0.51226676
H        1.33159436       3.82434351      42.20757247        0       1.00000000      -0.76137415       0.69196350      -0.33888563
H        3.70211022       2.77572068      39.89705275        0       1.00000000       0.71449031       0.51247296      -0.75098808
H        1.72224996       3.16411888      32.61036222        0       1.00000000       1.33468023      -0.51028213       0.24789184
H        0.03274708       1.21224480      30.26055286        0       1.00000000      -2.03694529      -1.17640235      -0.02331937
H        4.61155415       1.93267967      33.09451923        0       1.00000000       0.10060724       1.47626454      -0.38671252
24
Lattice="5.612310241546866 0.0 0.0 0.0 4.860403243099165 0.0 0.0 0.0 44.58243212332868" Properties=species:S:1:pos:R:3:tags:I:1:masses:R:1:momenta:R:3 KEmax=31.022389213981967 iter=199 volume=1216.1236359717223 set_wall=T ns_energy=29208.927135300146 ns_P=0.0 config_n_global=199 ns_KE=14.596231563446125 pbc="T T F"
H        1.40307756       0.81006721      20.00000000        3       1.00000000       0.00000000       0.00000000       0.00000000
H        4.20923268       0.81006721      20.00000000        3       1.00000000       0.00000000       0.00000000       0.00000000
H        0.00000000       3.24026883      20.00000000        3       1.00000000       0.00000000       0.00000000       0.00000000
H        2.80615512       3.24026883      20.00000000        3       1.00000000       0.00000000       0.00000000       0.00000000
H        0.00000000       1.62013441      22.29121606        2       1.00000000       0.00000000       0.00000000       0.00000000
H        2.80615512       1.62013441      22.29121606        2       1.00000000       0.00000000       0.00000000       0.00000000
H        1.40307756       4.05033604      22.29121606        2       1.00000000       0.00000000       0.00000000       0.00000000
H        4.20923268       4.05033604      22.29121606        2       1.00000000       0.00000000       0.00000000       0.00000000
H        0.00000000       0.00000000      24.58243212        1       1.00000000       0.00000000       0.00000000       0.00000000
H        2.80615512       0.00000000      24.58243212        1       1.00000000       0.00000000       0.00000000       0.00000000
H        1.40307756       2.43020162      24.58243212        1       1.00000000       0.00000000       0.00000000       0.00000000
H        4.20923268       2.43020162      24.58243212        1       1.00000000       0.00000000       0.00000000       0.00000000
H        2.16853636       2.08090645      40.95536593        0       1.00000000      -0.78160033       0.30126714       0.91871018
H        4.19935860       0.90273658      27.06225658        0       1.00000000      -0.05173933      -1.20951915      -0.52833030
H        5.16038260       0.01170010      29.66870544        0       1.00000000       0.06545544      -0.26323593       0.48065528
H        0.80393834       1.21006009      30.16290558        0       1.00000000      -0.48075387       0.59723926       0.23602549
H        1.56025061       1.51243848      31.38865165        0       1.00000000       1.71654397      -0.80808113       0.73511377
H        2.96874557       4.77723615      29.32331247        0       1.00000000      -0.46714540      -1.37306688       0.27577246
H        2.95201049       3.71736396      29.78216285        0       1.00000000      -1.22606006       0.03385839       1.50642095
H        3.86494404       1.64611368      35.69988583        0       1.00000000       0.32638335       1.16462859       0.74027840
H        2.92904190       3.20421095      30.66496025        0       1.00000000      -0.68175075       0.00688936      -2.88722322
H        3.09840582       0.91064035      27.24388963        0       1.00000000      -0.44864290       0.07412848      -0.10879151
H        5.08741209       1.83526178      38.93837517        0       1.00000000      -0.46030316       0.86478093      -0.20128320
H        3.27971711       1.89788073      38.68249761        0       1.00000000       0.45759737      -1.40471803       0.80464548
24
Lattice="5.612310241546866 0.0 0.0 0.0 4.860403243099165 0.0 0.0 0.0 44.58243212332868" Properties=species:S:1:pos:R:3:tags:I:1:masses:R:1:momenta:R:3 KEmax=31.022389213981967 iter=299 volume=1216.1236359717223 set_wall=T ns_energy=5514.493436907811 ns_P=0.0 config_n_global=299 ns_KE=14.490525951909477 pbc="T T F"
H        1.40307756       0.81006721      20.00000000        3       1.00000000       0.00000000       0.00000000       0.00000000
H        4.20923268       0.81006721      20.00000000        3       1.00000000       0.00000000       0.00000000       0.00000000
H        0.00000000       3.24026883      20.00000000        3       1.00000000       0.00000000       0.00000000       0.00000000
H        2.80615512       3.24026883      20.00000000        3       1.00000000       0.00000000       0.00000000       0.00000000
H        0.00000000       1.62013441      22.29121606        2       1.00000000       0.00000000       0.00000000       0.00000000
H        2.80615512       1.62013441      22.29121606        2       1.00000000       0.00000000       0.00000000       0.00000000
H        1.40307756       4.05033604      22.29121606        2       1.00000000       0.00000000       0.00000000       0.00000000
H        4.20923268       4.05033604      22.29121606        2       1.00000000       0.00000000       0.00000000       0.00000000
H        0.00000000       0.00000000      24.58243212        1       1.00000000       0.00000000       0.00000000       0.00000000
H        2.80615512       0.00000000      24.58243212        1       1.00000000       0.00000000       0.00000000       0.00000000
H        1.40307756       2.43020162      24.58243212        1       1.00000000       0.00000000       0.00000000       0.00000000
H        4.20923268       2.43020162      24.58243212        1       1.00000000       0.00000000       0.00000000       0.00000000
H        4.22650994       3.12230480      31.62938085        0       1.00000000      -0.62608289      -0.34985860       0.67538009
H        1.90894987       1.12989731      29.85020551        0       1.00000000       0.79513563       1.76215808       1.03325475
H        3.25073450       1.28206357      34.23829517        0       1.00000000       1.16725168       0.32274676      -1.05246621
H        4.08574509       3.01950933      41.92011832        0       1.00000000       0.23180514       2.20073411       0.46434012
H        2.95341200       1.41886127      29.52797514        0       1.00000000      -0.99301663      -0.06406166      -1.00986259
H        3.06171421       2.29746933      27.33449378        0       1.00000000      -0.67816268       0.41401888      -0.13971309
H        3.76822675       1.90189081      37.84757298        0       1.00000000      -0.31822947       0.24774021       0.88044336
H        4.78744803       4.34052254      38.16171846        0       1.00000000      -0.39252954       0.44656235      -0.37442285
H        5.42756299       1.84894141      28.72670821        0       1.00000000      -0.15156937      -1.21422503      -0.76021464
H        1.60870907       2.52677453      26.74692183        0       1.00000000      -0.39505928      -0.40775592      -1.23041814
H        1.88051935       4.76976514      39.18456103        0       1.00000000       1.36765571      -0.57528012      -0.61298840
H        0.86551670       1.51379834      34.72575856        0       1.00000000       1.51481309       0.83785780      -1.39314629
24
Lattice="5.612310241546866 0.0 0.0 0.0 4.860403243099165 0.0 0.0 0.0 44.58243212332868" Properties=species:S:1:pos:R:3:tags:I:1:masses:R:1:momenta:R:3 KEmax=31.022389213981967 iter=399 volume=1216.1236359717223 set_wall=T ns_energy=2097.7588924629035 ns_P=0.0 config_n_global=399 ns_KE=16.599150750199613 pbc="T T F"
H        1.40307756       0.81006721      20.00000000        3       1.00000000       0.00000000       0.00000000       0.00000000
H        4.20923268       0.81006721      20.00000000        3       1.00000000       0.00000000       0.00000000       0.00000000
H        0.00000000       3.24026883      20.00000000        3       1.00000000       0.00000000       0.00000000       0.00000000
H        2.80615512       3.24026883      20.00000000        3       1.00000000       0.00000000       0.00000000       0.00000000
H        0.00000000       1.62013441      22.29121606        2       1.00000000       0.00000000       0.00000000       0.00000000
H        2.80615512       1.62013441      22.29121606        2       1.00000000       0.00000000       0.00000000       0.00000000
H        1.40307756       4.05033604      22.29121606        2       1.00000000       0.00000000       0.00000000       0.00000000
H        4.20923268       4.05033604      22.29121606        2       1.00000000       0.00000000       0.00000000       0.00000000
H        0.00000000       0.00000000      24.58243212        1       1.00000000       0.00000000       0.00000000       0.00000000
H        2.80615512       0.00000000      24.58243212        1       1.00000000       0.00000000       0.00000000       0.00000000
H        1.40307756       2.43020162      24.58243212        1       1.00000000       0.00000000       0.00000000       0.00000000
H        4.20923268       2.43020162      24.58243212        1       1.00000000       0.00000000       0.00000000       0.00000000
H        1.79564496       4.71787812      26.68978601        0       1.00000000      -0.65478226       0.32710892      -0.21203870
H        2.97812699       2.31375008      29.92078980        0       1.00000000      -0.27739078      -1.00040586      -1.46248983
H        1.04538646       1.20143502      27.56806827        0       1.00000000      -1.01777615       1.26459980       0.57904402
H        1.83451100       4.57505893      37.17673691        0       1.00000000      -1.22208444       0.37218530       1.35841713
H        3.28651874       3.02708336      28.43335543        0       1.00000000      -0.75971590       1.30634037      -0.10707262
H        3.66017180       2.43808205      33.18314307        0       1.00000000       1.56481408       0.26966289       0.00818771
H        2.74653124       2.04956913      39.03399284        0       1.00000000      -0.83847851      -1.00962240      -0.92977681
H        3.27345607       2.39663484      31.92483672        0       1.00000000       1.34278473      -0.71807028      -1.49692619
H        3.37870576       2.21441279      36.36514646        0       1.00000000       0.62192581       1.16904551      -0.28128034
H        2.31368776       3.41634477      29.85429646        0       1.00000000       0.56687639      -0.69333831      -1.12679977
H        5.07074851       2.37618178      31.40227106        0       1.00000000      -1.34667096      -1.32846340      -0.33835398
H        1.39439200       2.90068033      36.71400785        0       1.00000000       1.26351078       0.04102509       1.33979860
24
Lattice="5.612310241546866 0.0 0.0 0.0 4.860403243099165 0.0 0.0 0.0 44.58243212332868" Properties=species:S:1:pos:R:3:tags:I:1:masses:R:1:momenta:R:3 KEmax=31.022389213981967 iter=499 volume=1216.1236359717223 set_wall=T ns_energy=1098.8869869996226 last_walked_iter_clone=227 ns_P=0.0 config_n_global=499 ns_KE=28.733694444036658 pbc="T T F"
H        1.40307756       0.81006721      20.00000000        3       1.00000000       0.00000000       0.00000000       0.00000000
H        4.20923268       0.81006721      20.00000000        3       1.00000000       0.00000000       0.00000000       0.00000000
H        0.00000000       3.24026883      20.00000000        3       1.00000000       0.00000000       0.00000000       0.00000000
H        2.80615512       3.24026883      20.00000000        3       1.00000000       0.00000000       0.00000000       0.00000000
H        0.00000000       1.62013441      22.29121606        2       1.00000000       0.00000000       0.00000000       0.00000000
H        2.80615512       1.62013441      22.29121606        2       1.00000000       0.00000000       0.00000000       0.00000000
H        1.40307756       4.05033604      22.29121606        2       1.00000000       0.00000000       0.00000000       0.00000000
H        4.20923268       4.05033604      22.29121606        2       1.00000000       0.00000000       0.00000000       0.00000000
H        0.00000000       0.00000000      24.58243212        1       1.00000000       0.00000000       0.00000000       0.00000000
H        2.80615512       0.00000000      24.58243212        1       1.00000000       0.00000000       0.00000000       0.00000000
H        1.40307756       2.43020162      24.58243212        1       1.00000000       0.00000000       0.00000000       0.00000000
H        4.20923268       2.43020162      24.58243212        1       1.00000000       0.00000000       0.00000000       0.00000000
H        5.56669007       1.78486797      35.20630821        0       1.00000000      -0.63576805      -0.60199703       0.98699058
H        2.56014730       3.45852813      31.38560081        0       1.00000000      -0.99169161       1.41853962      -1.36950243
H        4.79371506       4.83770446      34.56689204        0       1.00000000      -2.82561662       1.13157147       0.40472198
H        5.15233646       1.37558267      28.79325831        0       1.00000000       0.79722630      -1.76824375      -0.37296896
H        1.85631278       1.70546601      42.14781058        0       1.00000000       0.16438209      -1.00728092       0.67072167
H        2.98090922       3.20726923      36.60384176        0       1.00000000       0.07197779      -0.45655244       0.39534011
H        4.49082029       0.70070059      31.08497100        0       1.00000000      -0.39401375       0.03516666      -0.95390841
H        1.00724171       1.52787966      40.41405843        0       1.00000000       2.79003765      -0.48553980      -0.22729506
H        5.43050221       1.27685356      33.99026890        0       1.00000000       2.14492532      -3.34567765       0.04089345
H        1.89096223       2.22505248      38.13145290        0       1.00000000       0.99566005      -0.23626276      -1.04313126
H        2.96711635       1.97167155      41.15808032        0       1.00000000       2.07757680      -0.42135662      -0.89756933
H        3.46402261       3.01174984      28.55636529        0       1.00000000      -0.87243245       1.04300977      -1.20265545
24
Lattice="5.612310241546866 0.0 0.0 0.0 4.860403243099165 0.0 0.0 0.0 44.58243212332868" Properties=species:S:1:pos:R:3:tags:I:1:masses:R:1:momenta:R:3 KEmax=31.022389213981967 iter=599 volume=1216.1236359717223 set_wall=T ns_energy=647.1191271022843 last_walked_iter_clone=567 ns_P=0.0 config_n_global=599 ns_KE=29.558065714015115 pbc="T T F"
H        1.40307756       0.81006721      20.00000000        3       1.00000000       0.00000000       0.00000000       0.00000000
H        4.20923268       0.81006721      20.00000000        3       1.00000000       0.00000000       0.00000000       0.00000000
H        0.00000000       3.24026883      20.00000000        3       1.00000000       0.00000000       0.00000000       0.00000000
H        2.80615512       3.24026883      20.00000000        3       1.00000000       0.00000000       0.00000000       0.00000000
H        0.00000000       1.62013441      22.29121606        2       1.00000000       0.00000000       0.00000000       0.00000000
H        2.80615512       1.62013441      22.29121606        2       1.00000000       0.00000000       0.00000000       0.00000000
H        1.40307756       4.05033604      22.29121606        2       1.00000000       0.00000000       0.00000000       0.00000000
H        4.20923268       4.05033604      22.29121606        2       1.00000000       0.00000000       0.00000000       0.00000000
H        0.00000000       0.00000000      24.58243212        1       1.00000000       0.00000000       0.00000000       0.00000000
H        2.80615512       0.00000000      24.58243212        1       1.00000000       0.00000000       0.00000000       0.00000000
H        1.40307756       2.43020162      24.58243212        1       1.00000000       0.00000000       0.00000000       0.00000000
H        4.20923268       2.43020162      24.58243212        1       1.00000000       0.00000000       0.00000000       0.00000000
H        0.51712810       0.72160625      33.40038573        0       1.00000000       0.41356503      -0.50747806      -1.09658079
H        1.11408646       3.49865228      32.51855171        0       1.00000000       1.68868872      -0.51986823      -0.51343227
H        3.32461426       1.33119586      35.65106490        0       1.00000000       0.49186596      -1.10056769       1.27299370
H        5.30703630       4.73030476      31.13128741        0       1.00000000      -0.15913482      -0.84313509      -1.46591936
H        2.95469589       2.38894523      27.41476130        0       1.00000000      -1.51076918       0.15453195       0.80752191
H        0.93127212       0.39329019      37.40015034        0       1.00000000       1.80839288      -1.94380525       0.42496482
H        2.02457726       4.34221975      39.21338582        0       1.00000000       0.96833589      -1.69549575      -1.82696264
H        5.31525993       3.38334540      40.75005571        0       1.00000000      -1.48411518       1.64523573       0.38779932
H        4.80266705       3.27818647      27.04204594        0       1.00000000      -1.03976506       2.39794416      -2.88001660
H        5.47668730       3.33491923      33.64895776        0       1.00000000      -1.35794813       1.85081240      -0.19071182
H        4.75135231       2.28133388      27.97483623        0       1.00000000      -0.12613141      -0.77768396      -0.57402782
H        2.19645921       4.83266444      36.09603958        0       1.00000000      -0.78636898      -1.47557980      -1.25121278
24
Lattice="5.612310241546866 0.0 0.0 0.0 4.860403243099165 0.0 0.0 0.0 44.58243212332868" Properties=species:S:1:pos:R:3:tags:I:1:masses:R:1:momenta:R:3 KEmax=31.022389213981967 iter=699 volume=1216.1236359717223 set_wall=T ns_energy=339.4446117889102 last_walked_iter_clone=44 ns_P=0.0 config_n_global=699 ns_KE=30.332820997688 pbc="T T F"
H        1.40307756       0.81006721      20.00000000        3       1.00000000       0.00000000       0.00000000       0.00000000
H        4.20923268       0.81006721      20.00000000        3       1.00000000       0.00000000       0.00000000       0.00000000
H        0.00000000       3.24026883      20.00000000        3       1.00000000       0.00000000       0.00000000       0.00000000
H        2.80615512       3.24026883      20.00000000        3       1.00000000       0.00000000       0.00000000       0.00000000
H        0.00000000       1.62013441      22.29121606        2       1.00000000       0.00000000       0.00000000       0.00000000
H        2.80615512       1.62013441      22.29121606        2       1.00000000       0.00000000       0.00000000       0.00000000
H        1.40307756       4.05033604      22.29121606        2       1.00000000       0.00000000       0.00000000       0.00000000
H        4.20923268       4.05033604      22.29121606        2       1.00000000       0.00000000       0.00000000       0.00000000
H        0.00000000       0.00000000      24.58243212        1       1.00000000       0.00000000       0.00000000       0.00000000
H        2.80615512       0.00000000      24.58243212        1       1.00000000       0.00000000       0.00000000       0.00000000
H        1.40307756       2.43020162      24.58243212        1       1.00000000       0.00000000       0.00000000       0.00000000
H        4.20923268       2.43020162      24.58243212        1       1.00000000       0.00000000       0.00000000       0.00000000
H        4.56828198       3.29852583      38.50844595        0       1.00000000       1.46318680      -0.21853149       2.63295856
H        4.78757678       3.27594218      35.15925401        0       1.00000000      -1.45799748      -2.45021238      -0.69902091
H        4.81034659       3.10075406      40.90438616        0       1.00000000      -0.41351362      -1.45540848       1.04058674
H        1.53709433       1.46724350      40.90394911        0       1.00000000       0.15799585      -0.97055831       0.61437564
H        1.35346431       3.25280368      26.79615616        0       1.00000000       0.05475366       1.32342409       1.21744236
H        1.21981837       2.14814301      34.01171494        0       1.00000000       1.19913811       0.88754980       0.69082856
H        3.92245410       4.45662016      28.58318868        0       1.00000000      -0.49179341      -1.45556499      -0.61952780
H        5.03394689       1.25133078      29.82470643        0       1.00000000       1.48350092      -1.01029499       2.87158858
H        5.09776850       0.96308045      28.42013624        0       1.00000000       0.14571274       0.82589789      -2.07814638
H        4.87723119       3.50425911      31.90344718        0       1.00000000      -0.68849620      -0.00129850      -0.60178100
H        3.09060731       4.36368485      37.12501165        0       1.00000000       1.36155464      -1.94290313       0.53136619
H        3.68936948       1.20049339      35.64151054        0       1.00000000      -0.76146475       2.35908929       0.37997623
24
Lattice="5.612310241546866 0.0 0.0 0.0 4.860403243099165 0.0 0.0 0.0 44.58243212332868" Properties=species:S:1:pos:R:3:tags:I:1:masses:R:1:momenta:R:3 KEmax=31.022389213981967 iter=799 volume=1216.1236359717223 set_wall=T ns_energy=183.66482747139798 last_walked_iter_clone=516 ns_P=0.0 config_n_global=799 ns_KE=29.28268109482439 pbc="T T F"
H        1.40307756       0.81006721      20.00000000        3       1.00000000       0.00000000       0.00000000       0.00000000
H        4.20923268       0.81006721      20.00000000        3       1.00000000       0.00000000       0.00000000       0.00000000
H        0.00000000       3.24026883      20.00000000        3       1.00000000       0.00000000       0.00000000       0.00000000
H        2.80615512       3.24026883      20.00000000        3       1.00000000       0.00000000       0.00000000       0.00000000
H        0.00000000       1.62013441      22.29121606        2       1.00000000       0.00000000       0.00000000       0.00000000
H        2.80615512       1.62013441      22.29121606        2       1.00000000       0.00000000       0.00000000       0.00000000
H        1.40307756       4.05033604      22.29121606        2       1.00000000       0.00000000       0.00000000       0.00000000
H        4.20923268       4.05033604      22.29121606        2       1.00000000       0.00000000       0.00000000       0.00000000
H        0.00000000       0.00000000      24.58243212        1       1.00000000       0.00000000       0.00000000       0.00000000
H        2.80615512       0.00000000      24.58243212        1       1.00000000       0.00000000       0.00000000       0.00000000
H        1.40307756       2.43020162      24.58243212        1       1.00000000       0.00000000       0.00000000       0.00000000
H        4.20923268       2.43020162      24.58243212        1       1.00000000       0.00000000       0.00000000       0.00000000
H        5.53545988       2.80696914      41.36215429        0       1.00000000       1.03200217      -1.59772209       0.65839276
H        5.46743255       1.65604526      32.45393139        0       1.00000000      -0.71367839       2.32807621       1.45435403
H        2.96740466       3.54233497      31.13148478        0       1.00000000       0.51619734      -1.31730015       0.64002686
H        1.63828498       4.45697442      33.37643171        0       1.00000000      -0.19110966      -0.87449573       0.32552190
H        0.91027540       1.26757806      30.06940493        0       1.00000000       0.96848518       0.39392118      -0.43082738
H        5.19514796       0.94125549      29.33362740        0       1.00000000      -4.06196194      -1.55999154      -0.87495207
H        4.71784715       1.84240519      38.31667466        0       1.00000000      -0.28614422       1.15460177       0.78290336
H        4.07855899       0.83833167      41.55957905        0       1.00000000      -0.76242311      -1.59723173       1.04789076
H        5.31174165       0.67907154      40.35992351        0       1.00000000      -0.67005683      -1.29689077      -0.41834859
H        1.27358443       2.00355020      39.46070032        0       1.00000000       1.45937873      -1.01290836       0.85563676
H        1.02997849       3.84920954      31.77207651        0       1.00000000      -0.30084592      -0.72727111      -1.32276599
H        5.34191034       0.55748086      26.86710354        0       1.00000000      -1.74063781       2.07859470       0.04426222
24
Lattice="5.612310241546866 0.0 0.0 0.0 4.860403243099165 0.0 0.0 0.0 44.58243212332868" Properties=species:S:1:pos:R:3:tags:I:1:masses:R:1:momenta:R:3 KEmax=31.022389213981967 iter=899 volume=1216.1236359717223 set_wall=T ns_energy=111.86416450044983 last_walked_iter_clone=671 ns_P=0.0 config_n_global=899 ns_KE=29.859668445073524 pbc="T T F"
H        1.40307756       0.81006721      20.00000000        3       1.00000000       0.00000000       0.00000000       0.00000000
H        4.20923268       0.81006721      20.00000000        3       1.00000000       0.00000000       0.00000000       0.00000000
H        0.00000000       3.24026883      20.00000000        3       1.00000000       0.00000000       0.00000000       0.00000000
H        2.80615512       3.24026883      20.00000000        3       1.00000000       0.00000000       0.00000000       0.00000000
H        0.00000000       1.62013441      22.29121606        2       1.00000000       0.00000000       0.00000000       0.00000000
H        2.80615512       1.62013441      22.29121606        2       1.00000000       0.00000000       0.00000000       0.00000000
H        1.40307756       4.05033604      22.29121606        2       1.00000000       0.00000000       0.00000000       0.00000000
H        4.20923268       4.05033604      22.29121606        2       1.00000000       0.00000000       0.00000000       0.00000000
H        0.00000000       0.00000000      24.58243212        1       1.00000000       0.00000000       0.00000000       0.00000000
H        2.80615512       0.00000000      24.58243212        1       1.00000000       0.00000000       0.00000000       0.00000000
H        1.40307756       2.43020162      24.58243212        1       1.00000000       0.00000000       0.00000000       0.00000000
H        4.20923268       2.43020162      24.58243212        1       1.00000000       0.00000000       0.00000000       0.00000000
H        4.18130503       1.30788800      33.69519784        0       1.00000000       0.92337220      -0.25965994       2.83787343
H        0.48092534       1.48872269      37.04634462        0       1.00000000       0.51801348       0.27320373       1.21107349