21
Lattice="5.612310241546866 0.0 0.0 0.0 4.860403243099165 0.0 0.0 0.0 24.582432123328676" Properties=species:S:1:pos:R:3:tags:I:1:masses:R:1:momenta:R:3:forces:R:3 KEmax=27.14459056223422 iter=95829 volume=670.5618179858607 ns_energy=-14.088852845140309 last_walked_iter_clone=95664 energy=-14.088852845427088 stress="0.0214799402296772 -3.308281816291989e-08 -5.381247380693568e-08 -3.308281816291989e-08 0.021539449141689673 -3.64966348270756e-08 -5.381247380693568e-08 -3.64966348270756e-08 0.010716113548853448" pbc="T T F"
H        1.40307756       0.81006721      10.00000000        3       1.00000000       0.00000000       0.00000000       0.00000000       0.00000000       0.00000000       0.00000000
H        4.20923268       0.81006721      10.00000000        3       1.00000000       0.00000000       0.00000000       0.00000000       0.00000000       0.00000000       0.00000000
H        0.00000000       3.24026883      10.00000000        3       1.00000000       0.00000000       0.00000000       0.00000000       0.00000000       0.00000000       0.00000000
H        2.80615512       3.24026883      10.00000000        3       1.00000000       0.00000000       0.00000000       0.00000000       0.00000000       0.00000000       0.00000000
H        0.00000000       1.62013441      12.29121606        2       1.00000000       0.00000000       0.00000000       0.00000000       0.00000000       0.00000000       0.00000000
H        2.80615512       1.62013441      12.29121606        2       1.00000000       0.00000000       0.00000000       0.00000000       0.00000000       0.00000000       0.00000000
H        1.40307756       4.05033604      12.29121606        2       1.00000000       0.00000000       0.00000000       0.00000000       0.00000000       0.00000000       0.00000000
H        4.20923268       4.05033604      12.29121606        2       1.00000000       0.00000000       0.00000000       0.00000000       0.00000000       0.00000000       0.00000000
H        0.00000000       0.00000000      14.58243212        1       1.00000000       0.00000000       0.00000000       0.00000000       0.00000000       0.00000000       0.00000000
H        2.80615512       0.00000000      14.58243212        1       1.00000000       0.00000000       0.00000000       0.00000000       0.00000000       0.00000000       0.00000000
H        1.40307756       2.43020162      14.58243212        1       1.00000000       0.00000000       0.00000000       0.00000000       0.00000000       0.00000000       0.00000000
H        4.20923268       2.43020162      14.58243212        1       1.00000000       0.00000000       0.00000000       0.00000000       0.00000000       0.00000000       0.00000000
H        4.20923498       4.03408199      16.80115857        0       1.00000000       0.00000211      -0.00000316      -0.00000449      -0.00000315      -0.00000108      -0.00000076
H        4.20923489       0.80891816      19.01550952        0       1.00000000       0.00000396      -0.00000279       0.00000254       0.00000004       0.00000057       0.00000719
H        4.20923469       2.43020191       7.77172772        0       1.00000000       0.00000780      -0.00000078      -0.00000213      -0.00000108      -0.00000738      -0.00001124
H        2.79885266       1.62444481      16.79643733        0       1.00000000       0.00000323       0.00000435       0.00001193      -0.00000673       0.00001326       0.00000141
H        0.00000596       0.00000000       7.77172839        0       1.00000000      -0.00000245       0.00000296      -0.00000015      -0.00001446       0.00000053      -0.00001255
H        1.40307693       4.05965622      16.83224447        0       1.00000000       0.00000048      -0.00000151       0.00000197      -0.00000004      -0.00001404      -0.00000597
H        2.80616196       0.00000161       7.77172689        0       1.00000000       0.00000246      -0.00000054       0.00000694       0.00001126      -0.00000132       0.00000070
H        0.00730354       1.62444824      16.79643523        0       1.00000000      -0.00000028       0.00000560      -0.00000132       0.00000898       0.00000659       0.00000419
H        1.40308427       2.43019982       7.77172608        0       1.00000000      -0.00001063      -0.00000868       0.00000035      -0.00000398       0.00000704      -0.00000771
21
Lattice="5.612310241546866 0.0 0.0 0.0 4.860403243099165 0.0 0.0 0.0 24.582432123328676" Properties=species:S:1:pos:R:3:tags:I:1:masses:R:1:momenta:R:3:forces:R:3 KEmax=27.14459056223422 iter=95829 volume=670.5618179858607 ns_energy=-14.088852845131179 last_walked_iter_clone=95761 energy=-14.088852845427088 stress="0.0214799402296772 -3.308281816291989e-08 -5.381247380693568e-08 -3.308281816291989e-08 0.021539449141689673 -3.64966348270756e-08 -5.381247380693568e-08 -3.64966348270756e-08 0.010716113548853448" pbc="T T F"
H        1.40307756       0.81006721      10.00000000        3       1.00000000       0.00000000       0.00000000       0.00000000       0.00000000       0.00000000       0.00000000
H        4.20923268       0.81006721      10.00000000        3       1.00000000       0.00000000       0.00000000       0.00000000       0.00000000       0.00000000       0.00000000
H        0.00000000       3.24026883      10.00000000        3       1.00000000       0.00000000       0.00000000       0.00000000       0.00000000       0.00000000       0.00000000
H        2.80615512       3.24026883      10.00000000        3       1.00000000       0.00000000       0.00000000       0.00000000       0.00000000       0.00000000       0.00000000
H        0.00000000       1.62013441      12.29121606        2       1.00000000       0.00000000       0.00000000       0.00000000       0.00000000       0.00000000       0.00000000
H        2.80615512       1.62013441      12.29121606        2       1.00000000       0.00000000       0.00000000       0.00000000       0.00000000       0.00000000       0.00000000
H        1.40307756       4.05033604      12.29121606        2       1.00000000       0.00000000       0.00000000       0.00000000       0.00000000       0.00000000       0.00000000
H        4.20923268       4.05033604      12.29121606        2       1.00000000       0.00000000       0.00000000       0.00000000       0.00000000       0.00000000       0.00000000
H        0.00000000       0.00000000      14.58243212        1       1.00000000       0.00000000       0.00000000       0.00000000       0.00000000       0.00000000       0.00000000
H        2.80615512       0.00000000      14.58243212        1       1.00000000       0.00000000       0.00000000       0.00000000       0.00000000       0.00000000       0.00000000
H        1.40307756       2.43020162      14.58243212        1       1.00000000       0.00000000       0.00000000       0.00000000       0.00000000       0.00000000       0.00000000
H        4.20923268       2.43020162      14.58243212        1       1.00000000       0.00000000       0.00000000       0.00000000       0.00000000       0.00000000       0.00000000
H        4.20923539       4.03407745      16.80114990        0       1.00000000       0.00000462      -0.00000312      -0.00000349      -0.00000315      -0.00000108      -0.00000076
H        4.20923096       0.80891906      19.01551060        0       1.00000000       0.00000048      -0.00000355       0.00000675       0.00000004       0.00000057       0.00000719
H        4.20923034       2.43020892       7.77173024        0       1.00000000       0.00000218      -0.00000872       0.00000483      -0.00000108      -0.00000738      -0.00001124
H        2.79885822       1.62444772      16.79643689        0       1.00000000       0.00000025       0.00000528       0.00000306      -0.00000673       0.00001326       0.00000141
H        5.61230876       0.00000146       7.77172795        0       1.00000000       0.00000240      -0.00000104       0.00000013      -0.00001446       0.00000053      -0.00001255
H        1.40308082       4.05965843      16.83224003        0       1.00000000       0.00000199      -0.00000929      -0.00000277      -0.00000004      -0.00001404      -0.00000597
H        2.80615312       0.00000090       7.77172471        0       1.00000000       0.00000210      -0.00000001      -0.00000037       0.00001126      -0.00000132       0.00000070
H        0.00730996       1.62444675      16.79643855        0       1.00000000      -0.00000251      -0.00000165       0.00000169       0.00000898       0.00000659       0.00000419
H        1.40307804       2.43020584       7.77172987        0       1.00000000       0.00000310       0.00000146       0.00000143      -0.00000398       0.00000704      -0.00000771
21
Lattice="5.612310241546866 0.0 0.0 0.0 4.860403243099165 0.0 0.0 0.0 24.582432123328676" Properties=species:S:1:pos:R:3:tags:I:1:masses:R:1:momenta:R:3:forces:R:3 KEmax=27.14459056223422 iter=95829 volume=670.5618179858607 ns_energy=-14.088852845133761 last_walked_iter_clone=95508 energy=-14.088852845427088 stress="0.0214799402296772 -3.308281816291989e-08 -5.381247380693568e-08 -3.308281816291989e-08 0.021539449141689673 -3.64966348270756e-08 -5.381247380693568e-08 -3.64966348270756e-08 0.010716113548853448" pbc="T T F"
H        1.40307756       0.81006721      10.00000000        3       1.00000000       0.00000000       0.00000000       0.00000000       0.00000000       0.00000000       0.00000000
H        4.20923268       0.81006721      10.00000000        3       1.00000000       0.00000000       0.00000000       0.00000000       0.00000000       0.00000000       0.00000000
H        0.00000000       3.24026883      10.00000000        3       1.00000000       0.00000000       0.00000000       0.00000000       0.00000000       0.00000000       0.00000000
H        2.80615512       3.24026883      10.00000000        3       1.00000000       0.00000000       0.00000000       0.00000000       0.00000000       0.00000000       0.00000000
H        0.00000000       1.62013441      12.29121606        2       1.00000000       0.00000000       0.00000000       0.00000000       0.00000000       0.00000000       0.00000000
H        2.80615512       1.62013441      12.29121606        2       1.00000000       0.00000000       0.00000000       0.00000000       0.00000000       0.00000000       0.00000000
H        1.40307756       4.05033604      12.29121606        2       1.00000000       0.00000000       0.00000000       0.00000000       0.00000000       0.00000000       0.00000000
H        4.20923268       4.05033604      12.29121606        2       1.00000000       0.00000000       0.00000000       0.00000000       0.00000000       0.00000000       0.00000000
H        0.00000000       0.00000000      14.58243212        1       1.00000000       0.00000000       0.00000000       0.00000000       0.00000000       0.00000000       0.00000000
H        2.80615512       0.00000000      14.58243212        1       1.00000000       0.00000000       0.00000000       0.00000000       0.00000000       0.00000000       0.00000000
H        1.40307756       2.43020162      14.58243212        1       1.00000000       0.00000000       0.00000000       0.00000000       0.00000000       0.00000000       0.00000000
H        4.20923268       2.43020162      14.58243212        1       1.00000000       0.00000000       0.00000000       0.00000000       0.00000000       0.00000000       0.00000000
H        4.20922987       4.03408055      16.80115364        0       1.00000000       0.00000653      -0.00000369      -0.00000950      -0.00000315      -0.00000108      -0.00000076
H        4.20923354       0.80892707      19.01551030        0       1.00000000       0.00000225       0.00000216      -0.00000448       0.00000004       0.00000057       0.00000719
H        4.20923487       2.43020087       7.77173181        0       1.00000000      -0.00000251      -0.00000135      -0.00000078      -0.00000108      -0.00000738      -0.00001124
H        2.79885055       1.62444942      16.79643294        0       1.00000000      -0.00000028       0.00000013      -0.00000151      -0.00000673       0.00001326       0.00000141
H       -0.00000209      -0.00000418       7.77172794        0       1.00000000      -0.00000406      -0.00000635       0.00000726      -0.00001446       0.00000053      -0.00001255
H        1.40307665       4.05966223      16.83224682        0       1.00000000       0.00000385       0.00000244       0.00000518      -0.00000004      -0.00001404      -0.00000597
H        2.80615749       0.00000116       7.77173121        0       1.00000000       0.00000188      -0.00000590      -0.00000756       0.00001126      -0.00000132       0.00000070
H        0.00730047       1.62444766      16.79643533        0       1.00000000       0.00000158      -0.00000891       0.00000362       0.00000898       0.00000659       0.00000419
H        1.40307542       2.43020125       7.77172725        0       1.00000000       0.00000093      -0.00000704       0.00000155      -0.00000398       0.00000704      -0.00000771
21
Lattice="5.612310241546866 0.0 0.0 0.0 4.860403243099165 0.0 0.0 0.0 24.582432123328676" Properties=species:S:1:pos:R:3:tags:I:1:masses:R:1:momenta:R:3:forces:R:3 KEmax=27.14459056223422 iter=95829 volume=670.5618179858607 ns_energy=-14.088852845160508 last_walked_iter_clone=95816 energy=-14.088852845427088 stress="0.0214799402296772 -3.308281816291989e-08 -5.381247380693568e-08 -3.308281816291989e-08 0.021539449141689673 -3.64966348270756e-08 -5.381247380693568e-08 -3.64966348270756e-08 0.010716113548853448" pbc="T T F"
H        1.40307756       0.81006721      10.00000000        3       1.00000000       0.00000000       0.00000000       0.00000000       0.00000000       0.00000000       0.00000000
H        4.20923268       0.81006721      10.00000000        3       1.00000000       0.00000000       0.00000000       0.00000000       0.00000000       0.00000000       0.00000000
H        0.00000000       3.24026883      10.00000000        3       1.00000000       0.00000000       0.00000000       0.00000000       0.00000000       0.00000000       0.00000000
H        2.80615512       3.24026883      10.00000000        3       1.00000000       0.00000000       0.00000000       0.00000000       0.00000000       0.00000000       0.00000000
H        0.00000000       1.62013441      12.29121606        2       1.00000000       0.00000000       0.00000000       0.00000000       0.00000000       0.00000000       0.00000000
H        2.80615512       1.62013441      12.29121606        2       1.00000000       0.00000000       0.00000000       0.00000000       0.00000000       0.00000000       0.00000000
H        1.40307756       4.05033604      12.29121606        2       1.00000000       0.00000000       0.00000000       0.00000000       0.00000000       0.00000000       0.00000000
H        4.20923268       4.05033604      12.29121606        2       1.00000000       0.00000000       0.00000000       0.00000000       0.00000000       0.00000000       0.00000000
H        0.00000000       0.00000000      14.58243212        1       1.00000000       0.00000000       0.00000000       0.00000000       0.00000000       0.00000000       0.00000000
H        2.80615512       0.00000000      14.58243212        1       1.00000000       0.00000000       0.00000000       0.00000000       0.00000000       0.00000000       0.00000000
H        1.40307756       2.43020162      14.58243212        1       1.00000000       0.00000000       0.00000000       0.00000000       0.00000000       0.00000000       0.00000000
H        4.20923268       2.43020162      14.58243212        1       1.00000000       0.00000000       0.00000000       0.00000000       0.00000000       0.00000000       0.00000000
H        4.20923413       4.03408750      16.80115630        0       1.00000000      -0.00000391      -0.00000215       0.00000136      -0.00000315      -0.00000108      -0.00000076
H        4.20923241       0.80893498      19.01550395        0       1.00000000       0.00001018       0.00000170      -0.00000083       0.00000004       0.00000057       0.00000719
H        4.20923691       2.43020026       7.77173032        0       1.00000000       0.00000186       0.00000169       0.00000646      -0.00000108      -0.00000738      -0.00001124
H        2.79884958       1.62445337      16.79643361        0       1.00000000      -0.00000349       0.00000333      -0.00000445      -0.00000673       0.00001326       0.00000141
H        5.61231364      -0.00000038       7.77172869        0       1.00000000       0.00000147      -0.00000447       0.00000348      -0.00001446       0.00000053      -0.00001255
H        1.40308031       4.05966492      16.83224856        0       1.00000000      -0.00000325      -0.00000910       0.00000400      -0.00000004      -0.00001404      -0.00000597
H        2.80616060      -0.00000197       7.77172596        0       1.00000000      -0.00000152      -0.00000281      -0.00000131       0.00001126      -0.00000132       0.00000070
H        0.00730442       1.62445595      16.79643170        0       1.00000000      -0.00000221       0.00000821      -0.00000563       0.00000898       0.00000659       0.00000419
H        1.40307944       2.43019799       7.77172690        0       1.00000000      -0.00000752       0.00000534       0.00000223      -0.00000398       0.00000704      -0.00000771
21
Lattice="5.612310241546866 0.0 0.0 0.0 4.860403243099165 0.0 0.0 0.0 24.582432123328676" Properties=species:S:1:pos:R:3:tags:I:1:masses:R:1:momenta:R:3:forces:R:3 KEmax=27.14459056223422 iter=95829 volume=670.5618179858607 ns_energy=-14.088852845129367 last_walked_iter_clone=95666 energy=-14.088852845427088 stress="0.0214799402296772 -3.308281816291989e-08 -5.381247380693568e-08 -3.308281816291989e-08 0.021539449141689673 -3.64966348270756e-08 -5.381247380693568e-08 -3.64966348270756e-08 0.010716113548853448" pbc="T T F"
H        1.40307756       0.81006721      10.00000000        3       1.00000000       0.00000000       0.00000000       0.00000000       0.00000000       0.00000000       0.00000000
H        4.20923268       0.81006721      10.00000000        3       1.00000000       0.00000000       0.00000000       0.00000000       0.00000000       0.00000000       0.00000000
H        0.00000000       3.24026883      10.00000000        3       1.00000000       0.00000000       0.00000000       0.00000000       0.00000000       0.00000000       0.00000000
H        2.80615512       3.24026883      10.00000000        3       1.00000000       0.00000000       0.00000000       0.00000000       0.00000000       0.00000000       0.00000000
H        0.00000000       1.62013441      12.29121606        2       1.00000000       0.00000000       0.00000000       0.00000000       0.00000000       0.00000000       0.00000000
H        2.80615512       1.62013441      12.29121606        2       1.00000000       0.00000000       0.00000000       0.00000000       0.00000000       0.00000000       0.00000000
H        1.40307756       4.05033604      12.29121606        2       1.00000000       0.00000000       0.00000000       0.00000000       0.00000000       0.00000000       0.00000000
H        4.20923268       4.05033604      12.29121606        2       1.00000000       0.00000000       0.00000000       0.00000000       0.00000000       0.00000000       0.00000000
H        0.00000000       0.00000000      14.58243212        1       1.00000000       0.00000000       0.00000000       0.00000000       0.00000000       0.00000000       0.00000000
H        2.80615512       0.00000000      14.58243212        1       1.00000000       0.00000000       0.00000000       0.00000000       0.00000000       0.00000000       0.00000000
H        1.40307756       2.43020162      14.58243212        1       1.00000000       0.00000000       0.00000000       0.00000000       0.00000000       0.00000000       0.00000000
H        4.20923268       2.43020162      14.58243212        1       1.00000000       0.00000000       0.00000000       0.00000000       0.00000000       0.00000000       0.00000000
H        4.20923490       4.03408293      16.80116463        0       1.00000000      -0.00000071      -0.00000105      -0.00000433      -0.00000315      -0.00000108      -0.00000076
H        4.20924702       0.80893401      19.01551091        0       1.00000000       0.00000355      -0.00000037      -0.00000551       0.00000004       0.00000057       0.00000719
H        4.20923090       2.43020711       7.77172460        0       1.00000000       0.00000703       0.00000317       0.00000774      -0.00000108      -0.00000738      -0.00001124
H        2.79885645       1.62445144      16.79643491        0       1.00000000      -0.00000667       0.00000302       0.00000327      -0.00000673       0.00001326       0.00000141
H        5.61230877       4.86040637       7.77173012        0       1.00000000      -0.00000043       0.00000232      -0.00000158      -0.00001446       0.00000053      -0.00001255
H        1.40307568       4.05966704      16.83224758        0       1.00000000      -0.00000375      -0.00000526      -0.00000276      -0.00000004      -0.00001404      -0.00000597
H        2.80615089       4.86040759       7.77172616        0       1.00000000      -0.00000136       0.00000527      -0.00000288       0.00001126      -0.00000132       0.00000070
H        0.00730693       1.62445265      16.79643508        0       1.00000000       0.00000715      -0.00000488       0.00000496       0.00000898       0.00000659       0.00000419
H        1.40307495       2.43020329       7.77172807        0       1.00000000      -0.00000319       0.00000403      -0.00000083      -0.00000398       0.00000704      -0.00000771
21
Lattice="5.612310241546866 0.0 0.0 0.0 4.860403243099165 0.0 0.0 0.0 24.582432123328676" Properties=species:S:1:pos:R:3:tags:I:1:masses:R:1:momenta:R:3:forces:R:3 KEmax=27.14459056223422 iter=95829 volume=670.5618179858607 ns_energy=-14.088852845131198 last_walked_iter_clone=95540 energy=-14.088852845427088 stress="0.0214799402296772 -3.308281816291989e-08 -5.381247380693568e-08 -3.308281816291989e-08 0.021539449141689673 -3.64966348270756e-08 -5.381247380693568e-08 -3.64966348270756e-08 0.010716113548853448" pbc="T T F"
H        1.40307756       0.81006721      10.00000000        3       1.00000000       0.00000000       0.00000000       0.00000000       0.00000000       0.00000000       0.00000000
H        4.20923268       0.81006721      10.00000000        3       1.00000000       0.00000000       0.00000000       0.00000000       0.00000000       0.00000000       0.00000000
H        0.00000000       3.24026883      10.00000000        3       1.00000000       0.00000000       0.00000000       0.00000000       0.00000000       0.00000000       0.00000000
H        2.80615512       3.24026883      10.00000000        3       1.00000000       0.00000000       0.00000000       0.00000000       0.00000000       0.00000000       0.00000000
H        0.00000000       1.62013441      12.29121606        2       1.00000000       0.00000000       0.00000000       0.00000000       0.00000000       0.00000000       0.00000000
H        2.80615512       1.62013441      12.29121606        2       1.00000000       0.00000000       0.00000000       0.00000000       0.00000000       0.00000000       0.00000000
H        1.40307756       4.05033604      12.29121606        2       1.00000000       0.00000000       0.00000000       0.00000000       0.00000000       0.00000000       0.00000000
H        4.20923268       4.05033604      12.29121606        2       1.00000000       0.00000000       0.00000000       0.00000000       0.00000000       0.00000000       0.00000000
H        0.00000000       0.00000000      14.58243212        1       1.00000000       0.00000000       0.00000000       0.00000000       0.00000000       0.00000000       0.00000000
H        2.80615512       0.00000000      14.58243212        1       1.00000000       0.00000000       0.00000000       0.00000000       0.00000000       0.00000000       0.00000000
H        1.40307756       2.43020162      14.58243212        1       1.00000000       0.00000000       0.00000000       0.00000000       0.00000000       0.00000000       0.00000000
H        4.20923268       2.43020162      14.58243212        1       1.00000000       0.00000000       0.00000000       0.00000000       0.00000000       0.00000000       0.00000000
H        4.20923104       4.03407984      16.80115843        0       1.00000000       0.00000640      -0.00000001      -0.00000752      -0.00000315      -0.00000108      -0.00000076
H        4.20923603       0.80892769      19.01551208        0       1.00000000      -0.00000067      -0.00000499      -0.00000019       0.00000004       0.00000057       0.00000719
H        4.20922791       2.43019717       7.77172369        0       1.00000000       0.00000450      -0.00000559      -0.00000306      -0.00000108      -0.00000738      -0.00001124
H        2.79884810       1.62444891      16.79643686        0       1.00000000      -0.00000507      -0.00000101       0.00000307      -0.00000673       0.00001326       0.00000141
H       -0.00000555      -0.00000321       7.77172318        0       1.00000000      -0.00000592       0.00000117       0.00000261      -0.00001446       0.00000053      -0.00001255
H        1.40307596       4.05966422      16.83224491        0       1.00000000       0.00000306      -0.00000162      -0.00000496      -0.00000004      -0.00001404      -0.00000597
H        2.80614641      -0.00000359       7.77172232        0       1.00000000      -0.00000081      -0.00000346       0.00000572       0.00001126      -0.00000132       0.00000070
H        0.00730408       1.62445463      16.79643436        0       1.00000000       0.00000474       0.00000515       0.00000436       0.00000898       0.00000659       0.00000419
H        1.40307911       2.43019930       7.77172693        0       1.00000000      -0.00000457      -0.00000162       0.00000281      -0.00000398       0.00000704      -0.00000771
21
Lattice="5.612310241546866 0.0 0.0 0.0 4.860403243099165 0.0 0.0 0.0 24.582432123328676" Properties=species:S:1:pos:R:3:tags:I:1:masses:R:1:momenta:R:3:forces:R:3 KEmax=27.14459056223422 iter=95829 volume=670.5618179858607 ns_energy=-14.088852845129507 last_walked_iter_clone=95795 energy=-14.088852845427088 stress="0.0214799402296772 -3.308281816291989e-08 -5.381247380693568e-08 -3.308281816291989e-08 0.021539449141689673 -3.64966348270756e-08 -5.381247380693568e-08 -3.64966348270756e-08 0.010716113548853448" pbc="T T F"
H        1.40307756       0.81006721      10.00000000        3       1.00000000       0.00000000       0.00000000       0.00000000       0.00000000       0.00000000       0.00000000
H        4.20923268       0.81006721      10.00000000        3       1.00000000       0.00000000       0.00000000       0.00000000       0.00000000       0.00000000       0.00000000
H        0.00000000       3.24026883      10.00000000        3       1.00000000       0.00000000       0.00000000       0.00000000       0.00000000       0.00000000       0.00000000
H        2.80615512       3.24026883      10.00000000        3       1.00000000       0.00000000       0.00000000       0.00000000       0.00000000       0.00000000       0.00000000
H        0.00000000       1.62013441      12.29121606        2       1.00000000       0.00000000       0.00000000       0.00000000       0.00000000       0.00000000       0.00000000
H        2.80615512       1.62013441      12.29121606        2       1.00000000       0.00000000       0.00000000       0.00000000       0.00000000       0.00000000       0.00000000
H        1.40307756       4.05033604      12.29121606        2       1.00000000       0.00000000       0.00000000       0.00000000       0.00000000       0.00000000       0.00000000
H        4.20923268       4.05033604      12.29121606        2       1.00000000       0.00000000       0.00000000       0.00000000       0.00000000       0.00000000       0.00000000
H        0.00000000       0.00000000      14.58243212        1       1.00000000       0.00000000       0.00000000       0.00000000       0.00000000       0.00000000       0.00000000
H        2.80615512       0.00000000      14.58243212        1       1.00000000       0.00000000       0.00000000       0.00000000       0.00000000       0.00000000       0.00000000
H        1.40307756       2.43020162      14.58243212        1       1.00000000       0.00000000       0.00000000       0.00000000       0.00000000       0.00000000       0.00000000
H        4.20923268       2.43020162      14.58243212        1       1.00000000       0.00000000       0.00000000       0.00000000       0.00000000       0.00000000       0.00000000
H        4.20923304       4.03407929      16.80115512        0       1.00000000      -0.00000140      -0.00000192      -0.00000042      -0.00000315      -0.00000108      -0.00000076
H        4.20923434       0.80892245      19.01550573        0       1.00000000       0.00000134      -0.00000055       0.00000008       0.00000004       0.00000057       0.00000719
H        4.20922823       2.43020224       7.77173012        0       1.00000000      -0.00000136       0.00000559       0.00000608      -0.00000108      -0.00000738      -0.00001124
H        2.79885511       1.62445259      16.79642992        0       1.00000000       0.00000189       0.00000263      -0.00000110      -0.00000673       0.00001326       0.00000141
H        5.61230745       4.86040899       7.77172525        0       1.00000000      -0.00000020       0.00000323      -0.00000627      -0.00001446       0.00000053      -0.00001255
H        1.40307835       4.05965655      16.83224456        0       1.00000000      -0.00000061      -0.00000063       0.00001014      -0.00000004      -0.00001404      -0.00000597