21
Lattice="5.612310241546866 0.0 0.0 0.0 4.860403243099165 0.0 0.0 0.0 24.582432123328676" Properties=species:S:1:pos:R:3:tags:I:1:masses:R:1:momenta:R:3:forces:R:3 KEmax=27.14459056223422 iter=63762 volume=670.5618179858607 ns_energy=-14.088851009578644 last_walked_iter_clone=63710 energy=-14.08885221402251 stress="0.021485051333723606 1.4139715283985792e-06 -6.703016787433975e-06 1.4139715283985792e-06 0.021540963080410206 2.547376435073499e-06 -6.703016787433975e-06 2.547376435073499e-06 0.010729330512173412" pbc="T T F"
H        1.40307756       0.81006721      10.00000000        3       1.00000000       0.00000000       0.00000000       0.00000000       0.00000000       0.00000000       0.00000000
H        4.20923268       0.81006721      10.00000000        3       1.00000000       0.00000000       0.00000000       0.00000000       0.00000000       0.00000000       0.00000000
H        0.00000000       3.24026883      10.00000000        3       1.00000000       0.00000000       0.00000000       0.00000000       0.00000000       0.00000000       0.00000000
H        2.80615512       3.24026883      10.00000000        3       1.00000000       0.00000000       0.00000000       0.00000000       0.00000000       0.00000000       0.00000000
H        0.00000000       1.62013441      12.29121606        2       1.00000000       0.00000000       0.00000000       0.00000000       0.00000000       0.00000000       0.00000000
H        2.80615512       1.62013441      12.29121606        2       1.00000000       0.00000000       0.00000000       0.00000000       0.00000000       0.00000000       0.00000000
H        1.40307756       4.05033604      12.29121606        2       1.00000000       0.00000000       0.00000000       0.00000000       0.00000000       0.00000000       0.00000000
H        4.20923268       4.05033604      12.29121606        2       1.00000000       0.00000000       0.00000000       0.00000000       0.00000000       0.00000000       0.00000000
H        0.00000000       0.00000000      14.58243212        1       1.00000000       0.00000000       0.00000000       0.00000000       0.00000000       0.00000000       0.00000000
H        2.80615512       0.00000000      14.58243212        1       1.00000000       0.00000000       0.00000000       0.00000000       0.00000000       0.00000000       0.00000000
H        1.40307756       2.43020162      14.58243212        1       1.00000000       0.00000000       0.00000000       0.00000000       0.00000000       0.00000000       0.00000000
H        4.20923268       2.43020162      14.58243212        1       1.00000000       0.00000000       0.00000000       0.00000000       0.00000000       0.00000000       0.00000000
H        4.20914032       4.03384062      16.80102467        0       1.00000000       0.00005527      -0.00019815       0.00015124       0.00072008      -0.00013242      -0.00030292
H        4.20921828       0.80879811      19.01536403        0       1.00000000       0.00025637       0.00038730       0.00000365       0.00014117      -0.00008815      -0.00023951
H        4.20914526       2.43044993       7.77140621        0       1.00000000       0.00006483      -0.00043220      -0.00034742       0.00057244      -0.00030168      -0.00006187
H        2.79875839       1.62404193      16.79650313        0       1.00000000      -0.00013699       0.00001432      -0.00000250      -0.00039099       0.00037308      -0.00060591
H        5.61215641      -0.00008764       7.77186784        0       1.00000000       0.00024869       0.00022382      -0.00031394      -0.00027179       0.00004405       0.00032191
H        1.40305205       4.05917151      16.83223635        0       1.00000000       0.00001293       0.00016294      -0.00067130       0.00013046       0.00025701      -0.00016289
H        2.80593478       4.86074878       7.77175429        0       1.00000000       0.00035792      -0.00008269      -0.00023293      -0.00035810       0.00017282       0.00017552
H        0.00737615       1.62454953      16.79636709        0       1.00000000      -0.00002799       0.00009264       0.00008615      -0.00001964      -0.00023315      -0.00020943
H        1.40288714       2.43038913       7.77165040        0       1.00000000      -0.00004629       0.00035366      -0.00013972      -0.00014178       0.00052454      -0.00037364
21
Lattice="5.612310241546866 0.0 0.0 0.0 4.860403243099165 0.0 0.0 0.0 24.582432123328676" Properties=species:S:1:pos:R:3:tags:I:1:masses:R:1:momenta:R:3:forces:R:3 KEmax=27.14459056223422 iter=63762 volume=670.5618179858607 ns_energy=-14.088851006456837 last_walked_iter_clone=63741 energy=-14.08885221402251 stress="0.021485051333723606 1.4139715283985792e-06 -6.703016787433975e-06 1.4139715283985792e-06 0.021540963080410206 2.547376435073499e-06 -6.703016787433975e-06 2.547376435073499e-06 0.010729330512173412" pbc="T T F"
H        1.40307756       0.81006721      10.00000000        3       1.00000000       0.00000000       0.00000000       0.00000000       0.00000000       0.00000000       0.00000000
H        4.20923268       0.81006721      10.00000000        3       1.00000000       0.00000000       0.00000000       0.00000000       0.00000000       0.00000000       0.00000000
H        0.00000000       3.24026883      10.00000000        3       1.00000000       0.00000000       0.00000000       0.00000000       0.00000000       0.00000000       0.00000000
H        2.80615512       3.24026883      10.00000000        3       1.00000000       0.00000000       0.00000000       0.00000000       0.00000000       0.00000000       0.00000000
H        0.00000000       1.62013441      12.29121606        2       1.00000000       0.00000000       0.00000000       0.00000000       0.00000000       0.00000000       0.00000000
H        2.80615512       1.62013441      12.29121606        2       1.00000000       0.00000000       0.00000000       0.00000000       0.00000000       0.00000000       0.00000000
H        1.40307756       4.05033604      12.29121606        2       1.00000000       0.00000000       0.00000000       0.00000000       0.00000000       0.00000000       0.00000000
H        4.20923268       4.05033604      12.29121606        2       1.00000000       0.00000000       0.00000000       0.00000000       0.00000000       0.00000000       0.00000000
H        0.00000000       0.00000000      14.58243212        1       1.00000000       0.00000000       0.00000000       0.00000000       0.00000000       0.00000000       0.00000000
H        2.80615512       0.00000000      14.58243212        1       1.00000000       0.00000000       0.00000000       0.00000000       0.00000000       0.00000000       0.00000000
H        1.40307756       2.43020162      14.58243212        1       1.00000000       0.00000000       0.00000000       0.00000000       0.00000000       0.00000000       0.00000000
H        4.20923268       2.43020162      14.58243212        1       1.00000000       0.00000000       0.00000000       0.00000000       0.00000000       0.00000000       0.00000000
H        4.20915197       4.03429455      16.80108385        0       1.00000000      -0.00028876      -0.00001738      -0.00008850       0.00072008      -0.00013242      -0.00030292
H        4.20892335       0.80922987      19.01519913        0       1.00000000      -0.00019626       0.00019328       0.00016191       0.00014117      -0.00008815      -0.00023951
H        4.20933901       2.42960413       7.77159908        0       1.00000000       0.00009523       0.00033590      -0.00006185       0.00057244      -0.00030168      -0.00006187
H        2.79884720       1.62455023      16.79630064        0       1.00000000       0.00046441       0.00009011       0.00014533      -0.00039099       0.00037308      -0.00060591
H        5.61238604       4.86004865       7.77184667        0       1.00000000      -0.00019900       0.00000176       0.00040409      -0.00027179       0.00004405       0.00032191
H        1.40315083       4.05980769      16.83214074        0       1.00000000      -0.00014350      -0.00021479      -0.00011690       0.00013046       0.00025701      -0.00016289
H        2.80614051       4.85991616       7.77181538        0       1.00000000       0.00031235      -0.00021311      -0.00010173      -0.00035810       0.00017282       0.00017552
H        0.00767173       1.62484514      16.79644730        0       1.00000000      -0.00024245      -0.00042308       0.00033520      -0.00001964      -0.00023315      -0.00020943
H        1.40314942       2.43003551       7.77148979        0       1.00000000       0.00000042       0.00042436       0.00031595      -0.00014178       0.00052454      -0.00037364
21
Lattice="5.612310241546866 0.0 0.0 0.0 4.860403243099165 0.0 0.0 0.0 24.582432123328676" Properties=species:S:1:pos:R:3:tags:I:1:masses:R:1:momenta:R:3:forces:R:3 KEmax=27.14459056223422 iter=63762 volume=670.5618179858607 ns_energy=-14.08885099675465 last_walked_iter_clone=63690 energy=-14.08885221402251 stress="0.021485051333723606 1.4139715283985792e-06 -6.703016787433975e-06 1.4139715283985792e-06 0.021540963080410206 2.547376435073499e-06 -6.703016787433975e-06 2.547376435073499e-06 0.010729330512173412" pbc="T T F"
H        1.40307756       0.81006721      10.00000000        3       1.00000000       0.00000000       0.00000000       0.00000000       0.00000000       0.00000000       0.00000000
H        4.20923268       0.81006721      10.00000000        3       1.00000000       0.00000000       0.00000000       0.00000000       0.00000000       0.00000000       0.00000000
H        0.00000000       3.24026883      10.00000000        3       1.00000000       0.00000000       0.00000000       0.00000000       0.00000000       0.00000000       0.00000000
H        2.80615512       3.24026883      10.00000000        3       1.00000000       0.00000000       0.00000000       0.00000000       0.00000000       0.00000000       0.00000000
H        0.00000000       1.62013441      12.29121606        2       1.00000000       0.00000000       0.00000000       0.00000000       0.00000000       0.00000000       0.00000000
H        2.80615512       1.62013441      12.29121606        2       1.00000000       0.00000000       0.00000000       0.00000000       0.00000000       0.00000000       0.00000000
H        1.40307756       4.05033604      12.29121606        2       1.00000000       0.00000000       0.00000000       0.00000000       0.00000000       0.00000000       0.00000000
H        4.20923268       4.05033604      12.29121606        2       1.00000000       0.00000000       0.00000000       0.00000000       0.00000000       0.00000000       0.00000000
H        0.00000000       0.00000000      14.58243212        1       1.00000000       0.00000000       0.00000000       0.00000000       0.00000000       0.00000000       0.00000000
H        2.80615512       0.00000000      14.58243212        1       1.00000000       0.00000000       0.00000000       0.00000000       0.00000000       0.00000000       0.00000000
H        1.40307756       2.43020162      14.58243212        1       1.00000000       0.00000000       0.00000000       0.00000000       0.00000000       0.00000000       0.00000000
H        4.20923268       2.43020162      14.58243212        1       1.00000000       0.00000000       0.00000000       0.00000000       0.00000000       0.00000000       0.00000000
H        4.20932178       4.03425190      16.80130426        0       1.00000000       0.00001513      -0.00026714       0.00020249       0.00072008      -0.00013242      -0.00030292
H        4.20888485       0.80929325      19.01536936        0       1.00000000      -0.00000645      -0.00014297       0.00007873       0.00014117      -0.00008815      -0.00023951
H        4.20908978       2.43023056       7.77159332        0       1.00000000      -0.00022435       0.00021475       0.00011595       0.00057244      -0.00030168      -0.00006187
H        2.79889971       1.62470876      16.79615458        0       1.00000000       0.00041794       0.00033313      -0.00001537      -0.00039099       0.00037308      -0.00060591
H        5.61212093      -0.00024161       7.77192728        0       1.00000000      -0.00025657       0.00018692       0.00025841      -0.00027179       0.00004405       0.00032191
H        1.40325828       4.05950753      16.83253148        0       1.00000000       0.00025323       0.00038922      -0.00018147       0.00013046       0.00025701      -0.00016289
H        2.80603260       4.86032957       7.77189080        0       1.00000000       0.00010552      -0.00028638       0.00010860      -0.00035810       0.00017282       0.00017552
H        0.00758263       1.62454154      16.79620698        0       1.00000000       0.00035695       0.00003524      -0.00008314      -0.00001964      -0.00023315      -0.00020943
H        1.40263273       2.43036806       7.77177506        0       1.00000000      -0.00010448      -0.00016119      -0.00013998      -0.00014178       0.00052454      -0.00037364
21
Lattice="5.612310241546866 0.0 0.0 0.0 4.860403243099165 0.0 0.0 0.0 24.582432123328676" Properties=species:S:1:pos:R:3:tags:I:1:masses:R:1:momenta:R:3:forces:R:3 KEmax=27.14459056223422 iter=63762 volume=670.5618179858607 ns_energy=-14.08885101623745 last_walked_iter_clone=63678 energy=-14.08885221402251 stress="0.021485051333723606 1.4139715283985792e-06 -6.703016787433975e-06 1.4139715283985792e-06 0.021540963080410206 2.547376435073499e-06 -6.703016787433975e-06 2.547376435073499e-06 0.010729330512173412" pbc="T T F"
H        1.40307756       0.81006721      10.00000000        3       1.00000000       0.00000000       0.00000000       0.00000000       0.00000000       0.00000000       0.00000000
H        4.20923268       0.81006721      10.00000000        3       1.00000000       0.00000000       0.00000000       0.00000000       0.00000000       0.00000000       0.00000000
H        0.00000000       3.24026883      10.00000000        3       1.00000000       0.00000000       0.00000000       0.00000000       0.00000000       0.00000000       0.00000000
H        2.80615512       3.24026883      10.00000000        3       1.00000000       0.00000000       0.00000000       0.00000000       0.00000000       0.00000000       0.00000000
H        0.00000000       1.62013441      12.29121606        2       1.00000000       0.00000000       0.00000000       0.00000000       0.00000000       0.00000000       0.00000000
H        2.80615512       1.62013441      12.29121606        2       1.00000000       0.00000000       0.00000000       0.00000000       0.00000000       0.00000000       0.00000000
H        1.40307756       4.05033604      12.29121606        2       1.00000000       0.00000000       0.00000000       0.00000000       0.00000000       0.00000000       0.00000000
H        4.20923268       4.05033604      12.29121606        2       1.00000000       0.00000000       0.00000000       0.00000000       0.00000000       0.00000000       0.00000000
H        0.00000000       0.00000000      14.58243212        1       1.00000000       0.00000000       0.00000000       0.00000000       0.00000000       0.00000000       0.00000000
H        2.80615512       0.00000000      14.58243212        1       1.00000000       0.00000000       0.00000000       0.00000000       0.00000000       0.00000000       0.00000000
H        1.40307756       2.43020162      14.58243212        1       1.00000000       0.00000000       0.00000000       0.00000000       0.00000000       0.00000000       0.00000000
H        4.20923268       2.43020162      14.58243212        1       1.00000000       0.00000000       0.00000000       0.00000000       0.00000000       0.00000000       0.00000000
H        4.20946682       4.03362714      16.80121510        0       1.00000000       0.00017998      -0.00016991      -0.00007159       0.00072008      -0.00013242      -0.00030292
H        4.20959059       0.80859130      19.01544471        0       1.00000000       0.00042302      -0.00050766       0.00032913       0.00014117      -0.00008815      -0.00023951
H        4.20898450       2.43037638       7.77191646        0       1.00000000      -0.00008084       0.00026718      -0.00021997       0.00057244      -0.00030168      -0.00006187
H        2.79878372       1.62419963      16.79623114        0       1.00000000       0.00005255      -0.00045834       0.00006572      -0.00039099       0.00037308      -0.00060591
H        5.61228851       0.00005959       7.77181242        0       1.00000000       0.00000079      -0.00002638      -0.00000617      -0.00027179       0.00004405       0.00032191
H        1.40317161       4.05984044      16.83232764        0       1.00000000      -0.00014787      -0.00022042      -0.00011682       0.00013046       0.00025701      -0.00016289
H        2.80606354      -0.00004371       7.77166346        0       1.00000000      -0.00006866      -0.00015636       0.00016687      -0.00035810       0.00017282       0.00017552
H        0.00751224       1.62454845      16.79633110        0       1.00000000       0.00021678       0.00043385       0.00019708      -0.00001964      -0.00023315      -0.00020943
H        1.40285950       2.43003535       7.77153106        0       1.00000000       0.00008778      -0.00041425      -0.00015832      -0.00014178       0.00052454      -0.00037364
21
Lattice="5.612310241546866 0.0 0.0 0.0 4.860403243099165 0.0 0.0 0.0 24.582432123328676" Properties=species:S:1:pos:R:3:tags:I:1:masses:R:1:momenta:R:3:forces:R:3 KEmax=27.14459056223422 iter=63762 volume=670.5618179858607 ns_energy=-14.088851011877065 last_walked_iter_clone=63698 energy=-14.08885221402251 stress="0.021485051333723606 1.4139715283985792e-06 -6.703016787433975e-06 1.4139715283985792e-06 0.021540963080410206 2.547376435073499e-06 -6.703016787433975e-06 2.547376435073499e-06 0.010729330512173412" pbc="T T F"
H        1.40307756       0.81006721      10.00000000        3       1.00000000       0.00000000       0.00000000       0.00000000       0.00000000       0.00000000       0.00000000
H        4.20923268       0.81006721      10.00000000        3       1.00000000       0.00000000       0.00000000       0.00000000       0.00000000       0.00000000       0.00000000
H        0.00000000       3.24026883      10.00000000        3       1.00000000       0.00000000       0.00000000       0.00000000       0.00000000       0.00000000       0.00000000
H        2.80615512       3.24026883      10.00000000        3       1.00000000       0.00000000       0.00000000       0.00000000       0.00000000       0.00000000       0.00000000
H        0.00000000       1.62013441      12.29121606        2       1.00000000       0.00000000       0.00000000       0.00000000       0.00000000       0.00000000       0.00000000
H        2.80615512       1.62013441      12.29121606        2       1.00000000       0.00000000       0.00000000       0.00000000       0.00000000       0.00000000       0.00000000
H        1.40307756       4.05033604      12.29121606        2       1.00000000       0.00000000       0.00000000       0.00000000       0.00000000       0.00000000       0.00000000
H        4.20923268       4.05033604      12.29121606        2       1.00000000       0.00000000       0.00000000       0.00000000       0.00000000       0.00000000       0.00000000
H        0.00000000       0.00000000      14.58243212        1       1.00000000       0.00000000       0.00000000       0.00000000       0.00000000       0.00000000       0.00000000
H        2.80615512       0.00000000      14.58243212        1       1.00000000       0.00000000       0.00000000       0.00000000       0.00000000       0.00000000       0.00000000
H        1.40307756       2.43020162      14.58243212        1       1.00000000       0.00000000       0.00000000       0.00000000       0.00000000       0.00000000       0.00000000
H        4.20923268       2.43020162      14.58243212        1       1.00000000       0.00000000       0.00000000       0.00000000       0.00000000       0.00000000       0.00000000
H        4.20931949       4.03427278      16.80101534        0       1.00000000      -0.00016644       0.00020158      -0.00008733       0.00072008      -0.00013242      -0.00030292
H        4.20887540       0.80887594      19.01540977        0       1.00000000      -0.00004707       0.00035859      -0.00016047       0.00014117      -0.00008815      -0.00023951
H        4.20888482       2.43030284       7.77177247        0       1.00000000       0.00015423      -0.00050748       0.00013791       0.00057244      -0.00030168      -0.00006187
H        2.79885608       1.62480657      16.79659949        0       1.00000000      -0.00010034      -0.00005406      -0.00018042      -0.00039099       0.00037308      -0.00060591
H        5.61232585       0.00014049       7.77179031        0       1.00000000       0.00004857      -0.00019647       0.00003923      -0.00027179       0.00004405       0.00032191
H        1.40346547       4.05985913      16.83261598        0       1.00000000      -0.00016136      -0.00020981       0.00001347       0.00013046       0.00025701      -0.00016289
H        2.80606059       0.00006389       7.77176500        0       1.00000000      -0.00022138      -0.00019292      -0.00009606      -0.00035810       0.00017282       0.00017552
H        0.00733841       1.62458879      16.79645185        0       1.00000000       0.00007832      -0.00052417      -0.00025749      -0.00001964      -0.00023315      -0.00020943
H        1.40308096       2.43043144       7.77177645        0       1.00000000       0.00043265       0.00016365      -0.00082601      -0.00014178       0.00052454      -0.00037364
21
Lattice="5.612310241546866 0.0 0.0 0.0 4.860403243099165 0.0 0.0 0.0 24.582432123328676" Properties=species:S:1:pos:R:3:tags:I:1:masses:R:1:momenta:R:3:forces:R:3 KEmax=27.14459056223422 iter=63762 volume=670.5618179858607 ns_energy=-14.088851042780023 last_walked_iter_clone=63535 energy=-14.08885221402251 stress="0.021485051333723606 1.4139715283985792e-06 -6.703016787433975e-06 1.4139715283985792e-06 0.021540963080410206 2.547376435073499e-06 -6.703016787433975e-06 2.547376435073499e-06 0.010729330512173412" pbc="T T F"
H        1.40307756       0.81006721      10.00000000        3       1.00000000       0.00000000       0.00000000       0.00000000       0.00000000       0.00000000       0.00000000
H        4.20923268       0.81006721      10.00000000        3       1.00000000       0.00000000       0.00000000       0.00000000       0.00000000       0.00000000       0.00000000
H        0.00000000       3.24026883      10.00000000        3       1.00000000       0.00000000       0.00000000       0.00000000       0.00000000       0.00000000       0.00000000
H        2.80615512       3.24026883      10.00000000        3       1.00000000       0.00000000       0.00000000       0.00000000       0.00000000       0.00000000       0.00000000
H        0.00000000       1.62013441      12.29121606        2       1.00000000       0.00000000       0.00000000       0.00000000       0.00000000       0.00000000       0.00000000
H        2.80615512       1.62013441      12.29121606        2       1.00000000       0.00000000       0.00000000       0.00000000       0.00000000       0.00000000       0.00000000
H        1.40307756       4.05033604      12.29121606        2       1.00000000       0.00000000       0.00000000       0.00000000       0.00000000       0.00000000       0.00000000
H        4.20923268       4.05033604      12.29121606        2       1.00000000       0.00000000       0.00000000       0.00000000       0.00000000       0.00000000       0.00000000
H        0.00000000       0.00000000      14.58243212        1       1.00000000       0.00000000       0.00000000       0.00000000       0.00000000       0.00000000       0.00000000
H        2.80615512       0.00000000      14.58243212        1       1.00000000       0.00000000       0.00000000       0.00000000       0.00000000       0.00000000       0.00000000
H        1.40307756       2.43020162      14.58243212        1       1.00000000       0.00000000       0.00000000       0.00000000       0.00000000       0.00000000       0.00000000
H        4.20923268       2.43020162      14.58243212        1       1.00000000       0.00000000       0.00000000       0.00000000       0.00000000       0.00000000       0.00000000
H        4.20930789       4.03415220      16.80113959        0       1.00000000       0.00003946      -0.00035031       0.00036387       0.00072008      -0.00013242      -0.00030292
H        4.20873722       0.80895295      19.01583908        0       1.00000000      -0.00027379       0.00052521       0.00004707       0.00014117      -0.00008815      -0.00023951
H        4.20931876       2.43025021       7.77189411        0       1.00000000      -0.00007082       0.00020870       0.00005911       0.00057244      -0.00030168      -0.00006187
H        2.79874627       1.62453761      16.79629475        0       1.00000000       0.00012476      -0.00019494       0.00020436      -0.00039099       0.00037308      -0.00060591
H       -0.00010556       4.86044711       7.77153829        0       1.00000000      -0.00019662      -0.00016623       0.00010344      -0.00027179       0.00004405       0.00032191
H        1.40338873       4.05971139      16.83198772        0       1.00000000       0.00048200      -0.00048216      -0.00024419       0.00013046       0.00025701      -0.00016289
H        2.80604594       4.86040570       7.77180940        0       1.00000000       0.00008573       0.00038861      -0.00009194      -0.00035810       0.00017282       0.00017552
H        0.00741594       1.62439869      16.79684112        0       1.00000000       0.00022035      -0.00027825       0.00040935      -0.00001964      -0.00023315      -0.00020943
H        1.40311775       2.43024989       7.77161198        0       1.00000000      -0.00036004       0.00040263      -0.00014772      -0.00014178       0.00052454      -0.00037364
21
Lattice="5.612310241546866 0.0 0.0 0.0 4.860403243099165 0.0 0.0 0.0 24.582432123328676" Properties=species:S:1:pos:R:3:tags:I:1:masses:R:1:momenta:R:3:forces:R:3 KEmax=27.14459056223422 iter=63762 volume=670.5618179858607 ns_energy=-14.088851007644179 last_walked_iter_clone=63598 energy=-14.08885221402251 stress="0.021485051333723606 1.4139715283985792e-06 -6.703016787433975e-06 1.4139715283985792e-06 0.021540963080410206 2.547376435073499e-06 -6.703016787433975e-06 2.547376435073499e-06 0.010729330512173412" pbc="T T F"
H        1.40307756       0.81006721      10.00000000        3       1.00000000       0.00000000       0.00000000       0.00000000       0.00000000       0.00000000       0.00000000
H        4.20923268       0.81006721      10.00000000        3       1.00000000       0.00000000       0.00000000       0.00000000       0.00000000       0.00000000       0.00000000
H        0.00000000       3.24026883      10.00000000        3       1.00000000       0.00000000       0.00000000       0.00000000       0.00000000       0.00000000       0.00000000
H        2.80615512       3.24026883      10.00000000        3       1.00000000       0.00000000       0.00000000       0.00000000       0.00000000       0.00000000       0.00000000
H        0.00000000       1.62013441      12.29121606        2       1.00000000       0.00000000       0.00000000       0.00000000       0.00000000       0.00000000       0.00000000
H        2.80615512       1.62013441      12.29121606        2       1.00000000       0.00000000       0.00000000       0.00000000       0.00000000       0.00000000       0.00000000
H        1.40307756       4.05033604      12.29121606        2       1.00000000       0.00000000       0.00000000       0.00000000       0.00000000       0.00000000       0.00000000
H        4.20923268       4.05033604      12.29121606        2       1.00000000       0.00000000       0.00000000       0.00000000       0.00000000       0.00000000       0.00000000
H        0.00000000       0.00000000      14.58243212        1       1.00000000       0.00000000       0.00000000       0.00000000       0.00000000       0.00000000       0.00000000
H        2.80615512       0.00000000      14.58243212        1       1.00000000       0.00000000       0.00000000       0.00000000       0.00000000       0.00000000       0.00000000
H        1.40307756       2.43020162      14.58243212        1       1.00000000       0.00000000       0.00000000       0.00000000       0.00000000       0.00000000       0.00000000
H        4.20923268       2.43020162      14.58243212        1       1.00000000       0.00000000       0.00000000       0.00000000       0.00000000       0.00000000       0.00000000
H        4.20927186       4.03411507      16.80106659        0       1.00000000      -0.00002235      -0.00014484       0.00005502       0.00072008      -0.00013242      -0.00030292
H        4.20818283       0.80863834      19.01530846        0       1.00000000       0.00009598       0.00027764      -0.00021561       0.00014117      -0.00008815      -0.00023951
H        4.20933502       2.43003388       7.77179000        0       1.00000000       0.00026562       0.00027197      -0.00010484       0.00057244      -0.00030168      -0.00006187
H        2.79893362       1.62448572      16.79631492        0       1.00000000      -0.00002359      -0.00027677       0.00000725      -0.00039099       0.00037308      -0.00060591
H        5.61254781       4.86042492       7.77201247        0       1.00000000      -0.00020666      -0.00007840       0.00002503      -0.00027179       0.00004405       0.00032191
H        1.40296375       4.05957962      16.83200516        0       1.00000000      -0.00000552       0.00001755      -0.00018925       0.00013046       0.00025701      -0.00016289