21
Lattice="5.612310241546866 0.0 0.0 0.0 4.860403243099165 0.0 0.0 0.0 24.582432123328676" Properties=species:S:1:pos:R:3:tags:I:1:masses:R:1:momenta:R:3 KEmax=27.14459056223422 iter=99 volume=670.5618179858607 ns_energy=4697.082970968988 last_walked_iter_clone=53 ns_P=0.0 config_n_global=99 ns_KE=24.219598654669245 pbc="T T F"
H        1.40307756       0.81006721      10.00000000        3       1.00000000       0.00000000       0.00000000       0.00000000
H        4.20923268       0.81006721      10.00000000        3       1.00000000       0.00000000       0.00000000       0.00000000
H        0.00000000       3.24026883      10.00000000        3       1.00000000       0.00000000       0.00000000       0.00000000
H        2.80615512       3.24026883      10.00000000        3       1.00000000       0.00000000       0.00000000       0.00000000
H        0.00000000       1.62013441      12.29121606        2       1.00000000       0.00000000       0.00000000       0.00000000
H        2.80615512       1.62013441      12.29121606        2       1.00000000       0.00000000       0.00000000       0.00000000
H        1.40307756       4.05033604      12.29121606        2       1.00000000       0.00000000       0.00000000       0.00000000
H        4.20923268       4.05033604      12.29121606        2       1.00000000       0.00000000       0.00000000       0.00000000
H        0.00000000       0.00000000      14.58243212        1       1.00000000       0.00000000       0.00000000       0.00000000
H        2.80615512       0.00000000      14.58243212        1       1.00000000       0.00000000       0.00000000       0.00000000
H        1.40307756       2.43020162      14.58243212        1       1.00000000       0.00000000       0.00000000       0.00000000
H        4.20923268       2.43020162      14.58243212        1       1.00000000       0.00000000       0.00000000       0.00000000
H        5.36567196       1.28436586      22.02303888        0       1.00000000       1.04079585      -2.00156872      -0.18646836
H        3.57733661       1.20380627      20.81023260        0       1.00000000       1.36957454       0.26644049      -0.11925730
H        4.53236633       0.58888534       6.10503608        0       1.00000000      -0.66325072       0.31468985       1.72351933
H        3.39682513       0.72532080      19.33240340        0       1.00000000      -0.32424434       0.34777550      -0.87874626
H        3.85358792       0.20773827       4.30777418        0       1.00000000      -1.39607698      -1.26993012      -2.79200862
H        4.91324722       3.86773665      21.99586398        0       1.00000000      -0.28167934       1.32733519      -1.51775179
H        4.80788529       4.33912318       6.18622191        0       1.00000000      -0.29400468      -0.56320149       2.67068449
H        1.19735505       1.72247330      17.85598034        0       1.00000000      -1.86943762       1.11795417      -1.82995609
H        1.29722835       0.72722000       2.58364484        0       1.00000000      -0.20901242       2.14609647       1.03220955
21
Lattice="5.612310241546866 0.0 0.0 0.0 4.860403243099165 0.0 0.0 0.0 24.582432123328676" Properties=species:S:1:pos:R:3:tags:I:1:masses:R:1:momenta:R:3 KEmax=27.14459056223422 iter=199 volume=670.5618179858607 ns_energy=375.70142131166705 ns_P=0.0 config_n_global=199 ns_KE=16.055978689142208 pbc="T T F"
H        1.40307756       0.81006721      10.00000000        3       1.00000000       0.00000000       0.00000000       0.00000000
H        4.20923268       0.81006721      10.00000000        3       1.00000000       0.00000000       0.00000000       0.00000000
H        0.00000000       3.24026883      10.00000000        3       1.00000000       0.00000000       0.00000000       0.00000000
H        2.80615512       3.24026883      10.00000000        3       1.00000000       0.00000000       0.00000000       0.00000000
H        0.00000000       1.62013441      12.29121606        2       1.00000000       0.00000000       0.00000000       0.00000000
H        2.80615512       1.62013441      12.29121606        2       1.00000000       0.00000000       0.00000000       0.00000000
H        1.40307756       4.05033604      12.29121606        2       1.00000000       0.00000000       0.00000000       0.00000000
H        4.20923268       4.05033604      12.29121606        2       1.00000000       0.00000000       0.00000000       0.00000000
H        0.00000000       0.00000000      14.58243212        1       1.00000000       0.00000000       0.00000000       0.00000000
H        2.80615512       0.00000000      14.58243212        1       1.00000000       0.00000000       0.00000000       0.00000000
H        1.40307756       2.43020162      14.58243212        1       1.00000000       0.00000000       0.00000000       0.00000000
H        4.20923268       2.43020162      14.58243212        1       1.00000000       0.00000000       0.00000000       0.00000000
H        1.64323359       2.78380632      20.85000573        0       1.00000000      -1.19372973       1.01006914       0.01066087
H        3.37707054       2.30399182      20.57599832        0       1.00000000       0.05017295       1.55683160       0.35536314
H        4.82355937       1.87794462       7.40369324        0       1.00000000       1.50275460      -0.43844657      -2.13324506
H        0.85077145       1.20212057      21.22558959        0       1.00000000       1.17452369      -0.04444533       2.10763982
H        1.89864908       3.86354390       2.22752585        0       1.00000000      -0.69493645       1.26706187       0.11564094
H        0.96878803       3.39016617      19.75471776        0       1.00000000      -0.62796364      -0.05018890       0.57854368
H        3.93255166       3.63506127       3.39952243        0       1.00000000       2.31499611       0.83342423       0.32423613
H        5.07930264       4.12805875      21.83204973        0       1.00000000      -0.73208931      -1.01797558       0.96668156
H        2.32102648       0.48061777       7.55494961        0       1.00000000      -0.06183763       1.66921528      -0.01253585
21
Lattice="5.612310241546866 0.0 0.0 0.0 4.860403243099165 0.0 0.0 0.0 24.582432123328676" Properties=species:S:1:pos:R:3:tags:I:1:masses:R:1:momenta:R:3 KEmax=27.14459056223422 iter=299 volume=670.5618179858607 ns_energy=46.49629523859512 last_walked_iter_clone=103 ns_P=0.0 config_n_global=299 ns_KE=25.377757345831277 pbc="T T F"
H        1.40307756       0.81006721      10.00000000        3       1.00000000       0.00000000       0.00000000       0.00000000
H        4.20923268       0.81006721      10.00000000        3       1.00000000       0.00000000       0.00000000       0.00000000
H        0.00000000       3.24026883      10.00000000        3       1.00000000       0.00000000       0.00000000       0.00000000
H        2.80615512       3.24026883      10.00000000        3       1.00000000       0.00000000       0.00000000       0.00000000
H        0.00000000       1.62013441      12.29121606        2       1.00000000       0.00000000       0.00000000       0.00000000
H        2.80615512       1.62013441      12.29121606        2       1.00000000       0.00000000       0.00000000       0.00000000
H        1.40307756       4.05033604      12.29121606        2       1.00000000       0.00000000       0.00000000       0.00000000
H        4.20923268       4.05033604      12.29121606        2       1.00000000       0.00000000       0.00000000       0.00000000
H        0.00000000       0.00000000      14.58243212        1       1.00000000       0.00000000       0.00000000       0.00000000
H        2.80615512       0.00000000      14.58243212        1       1.00000000       0.00000000       0.00000000       0.00000000
H        1.40307756       2.43020162      14.58243212        1       1.00000000       0.00000000       0.00000000       0.00000000
H        4.20923268       2.43020162      14.58243212        1       1.00000000       0.00000000       0.00000000       0.00000000
H        3.06557371       0.48966623      22.54771953        0       1.00000000       3.38066733      -1.11051437      -0.49111352
H        3.72154963       1.84774238      20.09554450        0       1.00000000       1.99834289       0.50384989      -0.59966274
H        2.76912465       0.95075043       5.51043147        0       1.00000000       0.97362518      -0.41393098      -0.62405710
H        5.49771471       3.20826592      18.39304013        0       1.00000000       0.55367846       0.73860171       2.12771206
H        2.27968666       3.10416856       5.52645546        0       1.00000000       1.34842240       0.28590191      -1.21123402
H        1.17749984       0.51028288      19.33115789        0       1.00000000       1.70750198       0.83508436       1.11970684
H        2.67011784       4.59853043       6.81886616        0       1.00000000       0.85306390       0.47912290      -0.40662042
H        1.23188210       0.21568154      21.91624032        0       1.00000000       1.69591376      -1.29221674      -0.46461401
H        3.89775336       4.76679855       2.16897382        0       1.00000000       2.65311712       2.07961585      -0.93559854
21
Lattice="5.612310241546866 0.0 0.0 0.0 4.860403243099165 0.0 0.0 0.0 24.582432123328676" Properties=species:S:1:pos:R:3:tags:I:1:masses:R:1:momenta:R:3 KEmax=27.14459056223422 iter=399 volume=670.5618179858607 ns_energy=25.92089264948405 last_walked_iter_clone=99 ns_P=0.0 config_n_global=399 ns_KE=26.48362065765744 pbc="T T F"
H        1.40307756       0.81006721      10.00000000        3       1.00000000       0.00000000       0.00000000       0.00000000
H        4.20923268       0.81006721      10.00000000        3       1.00000000       0.00000000       0.00000000       0.00000000
H        0.00000000       3.24026883      10.00000000        3       1.00000000       0.00000000       0.00000000       0.00000000
H        2.80615512       3.24026883      10.00000000        3       1.00000000       0.00000000       0.00000000       0.00000000
H        0.00000000       1.62013441      12.29121606        2       1.00000000       0.00000000       0.00000000       0.00000000
H        2.80615512       1.62013441      12.29121606        2       1.00000000       0.00000000       0.00000000       0.00000000
H        1.40307756       4.05033604      12.29121606        2       1.00000000       0.00000000       0.00000000       0.00000000
H        4.20923268       4.05033604      12.29121606        2       1.00000000       0.00000000       0.00000000       0.00000000
H        0.00000000       0.00000000      14.58243212        1       1.00000000       0.00000000       0.00000000       0.00000000
H        2.80615512       0.00000000      14.58243212        1       1.00000000       0.00000000       0.00000000       0.00000000
H        1.40307756       2.43020162      14.58243212        1       1.00000000       0.00000000       0.00000000       0.00000000
H        4.20923268       2.43020162      14.58243212        1       1.00000000       0.00000000       0.00000000       0.00000000
H        3.65602551       0.38810817      20.65991246        0       1.00000000       2.82096850       1.62757331      -0.09570143
H        2.45154910       2.92035416      20.95100368        0       1.00000000       1.58967515      -0.16353734      -0.31450899
H        1.57352098       2.68488921       3.55369801        0       1.00000000      -1.06238013       0.45032175      -0.87726993
H        1.15953766       4.22366039      20.35219635        0       1.00000000       0.16079997       1.89669469       1.99379407
H        2.79513318       1.00413436       4.52946663        0       1.00000000      -0.73415159      -0.57130676      -0.69685477
H        4.17662380       1.41798529      17.26620028        0       1.00000000      -0.32752790       1.34179093       3.60668430
H        4.20582286       2.65340423       4.19160563        0       1.00000000      -0.89243707       1.79402535       1.16595885
H        0.83067934       1.60384103      17.80519096        0       1.00000000       0.18589299       1.46080843      -2.07122990
H        4.44370203       4.64102651       2.02490695        0       1.00000000      -1.03788753      -0.74029813      -0.52336595
21
Lattice="5.612310241546866 0.0 0.0 0.0 4.860403243099165 0.0 0.0 0.0 24.582432123328676" Properties=species:S:1:pos:R:3:tags:I:1:masses:R:1:momenta:R:3 KEmax=27.14459056223422 iter=499 volume=670.5618179858607 ns_energy=19.449793513061532 last_walked_iter_clone=439 ns_P=0.0 config_n_global=499 ns_KE=26.373691897482434 pbc="T T F"
H        1.40307756       0.81006721      10.00000000        3       1.00000000       0.00000000       0.00000000       0.00000000
H        4.20923268       0.81006721      10.00000000        3       1.00000000       0.00000000       0.00000000       0.00000000
H        0.00000000       3.24026883      10.00000000        3       1.00000000       0.00000000       0.00000000       0.00000000
H        2.80615512       3.24026883      10.00000000        3       1.00000000       0.00000000       0.00000000       0.00000000
H        0.00000000       1.62013441      12.29121606        2       1.00000000       0.00000000       0.00000000       0.00000000
H        2.80615512       1.62013441      12.29121606        2       1.00000000       0.00000000       0.00000000       0.00000000
H        1.40307756       4.05033604      12.29121606        2       1.00000000       0.00000000       0.00000000       0.00000000
H        4.20923268       4.05033604      12.29121606        2       1.00000000       0.00000000       0.00000000       0.00000000
H        0.00000000       0.00000000      14.58243212        1       1.00000000       0.00000000       0.00000000       0.00000000
H        2.80615512       0.00000000      14.58243212        1       1.00000000       0.00000000       0.00000000       0.00000000
H        1.40307756       2.43020162      14.58243212        1       1.00000000       0.00000000       0.00000000       0.00000000
H        4.20923268       2.43020162      14.58243212        1       1.00000000       0.00000000       0.00000000       0.00000000
H        1.51826576       4.56411587      20.82698536        0       1.00000000       0.10018802      -0.14916385       0.60947618
H        0.27746917       4.76451818      18.41158426        0       1.00000000       0.19605429      -0.72720099      -2.83620799
H        0.67632430       4.13159112       7.08950997        0       1.00000000      -3.73032794      -0.14194882       1.12525428
H        1.80453168       1.58537700      21.89546570        0       1.00000000      -0.11501400       0.25703976      -0.96899888
H        3.58827517       4.06873023       4.49096750        0       1.00000000       1.79998591       1.41315854      -0.69736684
H        3.40398184       3.47473019      22.13602469        0       1.00000000      -0.06589967      -1.87232625       0.52490227
H        4.64189153       3.12443033       2.77112298        0       1.00000000      -2.25096096       0.95776928       0.90233175
H        3.12402090       1.62492977      18.60865713        0       1.00000000      -2.43890511       1.33011507      -1.68900046
H        2.91156439       0.62651806       2.58801252        0       1.00000000      -0.42880032       0.23108322      -0.63070412
21
Lattice="5.612310241546866 0.0 0.0 0.0 4.860403243099165 0.0 0.0 0.0 24.582432123328676" Properties=species:S:1:pos:R:3:tags:I:1:masses:R:1:momenta:R:3 KEmax=27.14459056223422 iter=599 volume=670.5618179858607 ns_energy=17.07573852143949 last_walked_iter_clone=391 ns_P=0.0 config_n_global=599 ns_KE=25.573255148026796 pbc="T T F"
H        1.40307756       0.81006721      10.00000000        3       1.00000000       0.00000000       0.00000000       0.00000000
H        4.20923268       0.81006721      10.00000000        3       1.00000000       0.00000000       0.00000000       0.00000000
H        0.00000000       3.24026883      10.00000000        3       1.00000000       0.00000000       0.00000000       0.00000000
H        2.80615512       3.24026883      10.00000000        3       1.00000000       0.00000000       0.00000000       0.00000000
H        0.00000000       1.62013441      12.29121606        2       1.00000000       0.00000000       0.00000000       0.00000000
H        2.80615512       1.62013441      12.29121606        2       1.00000000       0.00000000       0.00000000       0.00000000
H        1.40307756       4.05033604      12.29121606        2       1.00000000       0.00000000       0.00000000       0.00000000
H        4.20923268       4.05033604      12.29121606        2       1.00000000       0.00000000       0.00000000       0.00000000
H        0.00000000       0.00000000      14.58243212        1       1.00000000       0.00000000       0.00000000       0.00000000
H        2.80615512       0.00000000      14.58243212        1       1.00000000       0.00000000       0.00000000       0.00000000
H        1.40307756       2.43020162      14.58243212        1       1.00000000       0.00000000       0.00000000       0.00000000
H        4.20923268       2.43020162      14.58243212        1       1.00000000       0.00000000       0.00000000       0.00000000
H        1.16492291       4.50536001      21.33132392        0       1.00000000      -1.90073275      -0.70241385       3.29016679
H        0.55011508       0.51351860      18.78959752        0       1.00000000      -0.82875200       1.23292093      -1.48916987
H        1.41915711       3.79544491       6.93900462        0       1.00000000       0.92681070      -1.01223349       1.20718725
H        1.29200042       2.10845795      21.53106685        0       1.00000000       1.85613744       0.29546316      -1.06979997
H        2.99239613       4.09814692       4.96996816        0       1.00000000      -0.61946105       1.97443747       0.67023380
H        4.55817415       4.33212782      21.85539425        0       1.00000000       1.48521344      -0.65499176       1.33132704
H        4.81926190       2.76912226       2.00332481        0       1.00000000       0.34676136      -0.08754575       0.50289169
H        3.34616318       1.41259203      19.47410320        0       1.00000000      -1.40314619       2.35726941       1.54618005
H        2.61691044       1.54119221       3.02593878        0       1.00000000      -0.60535627       1.99230481       0.03567062
21
Lattice="5.612310241546866 0.0 0.0 0.0 4.860403243099165 0.0 0.0 0.0 24.582432123328676" Properties=species:S:1:pos:R:3:tags:I:1:masses:R:1:momenta:R:3 KEmax=27.14459056223422 iter=699 volume=670.5618179858607 ns_energy=15.731220855323532 last_walked_iter_clone=630 ns_P=0.0 config_n_global=699 ns_KE=24.64999362499246 pbc="T T F"
H        1.40307756       0.81006721      10.00000000        3       1.00000000       0.00000000       0.00000000       0.00000000
H        4.20923268       0.81006721      10.00000000        3       1.00000000       0.00000000       0.00000000       0.00000000
H        0.00000000       3.24026883      10.00000000        3       1.00000000       0.00000000       0.00000000       0.00000000
H        2.80615512       3.24026883      10.00000000        3       1.00000000       0.00000000       0.00000000       0.00000000
H        0.00000000       1.62013441      12.29121606        2       1.00000000       0.00000000       0.00000000       0.00000000
H        2.80615512       1.62013441      12.29121606        2       1.00000000       0.00000000       0.00000000       0.00000000
H        1.40307756       4.05033604      12.29121606        2       1.00000000       0.00000000       0.00000000       0.00000000
H        4.20923268       4.05033604      12.29121606        2       1.00000000       0.00000000       0.00000000       0.00000000
H        0.00000000       0.00000000      14.58243212        1       1.00000000       0.00000000       0.00000000       0.00000000
H        2.80615512       0.00000000      14.58243212        1       1.00000000       0.00000000       0.00000000       0.00000000
H        1.40307756       2.43020162      14.58243212        1       1.00000000       0.00000000       0.00000000       0.00000000
H        4.20923268       2.43020162      14.58243212        1       1.00000000       0.00000000       0.00000000       0.00000000
H        5.42270885       3.41169167      21.55838860        0       1.00000000      -0.46841407       1.46377141       1.17790158
H        3.45067819       1.36114830      18.19491166        0       1.00000000      -0.85106973       0.06518796       0.64523208
H        3.43472169       2.99227542       4.24191580        0       1.00000000      -0.41503740      -0.95466131       2.28381805
H        3.97386877       1.36948608      20.47486364        0       1.00000000      -0.21846641       1.35174592      -2.27289493
H       -0.23958183       3.49974409       1.70110474        0       1.00000000      -1.34174624       0.38535579      -1.18663469
H        5.52004896       1.21865422      22.61369528        0       1.00000000       0.91083069      -1.99444656       0.50837441
H        2.55823863       0.56564347       4.06650793        0       1.00000000      -0.30638198       0.49526049      -1.29870097
H        2.47506308       3.53691073      21.15363264        0       1.00000000       1.39629634      -0.70260462       1.63323610
H        5.39458756       0.69771222       3.33986854        0       1.00000000      -0.11026102       2.77715956       2.78945928
21
Lattice="5.612310241546866 0.0 0.0 0.0 4.860403243099165 0.0 0.0 0.0 24.582432123328676" Properties=species:S:1:pos:R:3:tags:I:1:masses:R:1:momenta:R:3 KEmax=27.14459056223422 iter=799 volume=670.5618179858607 ns_energy=14.374830086189569 last_walked_iter_clone=719 ns_P=0.0 config_n_global=799 ns_KE=23.428583004308827 pbc="T T F"
H        1.40307756       0.81006721      10.00000000        3       1.00000000       0.00000000       0.00000000       0.00000000
H        4.20923268       0.81006721      10.00000000        3       1.00000000       0.00000000       0.00000000       0.00000000
H        0.00000000       3.24026883      10.00000000        3       1.00000000       0.00000000       0.00000000       0.00000000
H        2.80615512       3.24026883      10.00000000        3       1.00000000       0.00000000       0.00000000       0.00000000
H        0.00000000       1.62013441      12.29121606        2       1.00000000       0.00000000       0.00000000       0.00000000
H        2.80615512       1.62013441      12.29121606        2       1.00000000       0.00000000       0.00000000       0.00000000
H        1.40307756       4.05033604      12.29121606        2       1.00000000       0.00000000       0.00000000       0.00000000
H        4.20923268       4.05033604      12.29121606        2       1.00000000       0.00000000       0.00000000       0.00000000
H        0.00000000       0.00000000      14.58243212        1       1.00000000       0.00000000       0.00000000       0.00000000
H        2.80615512       0.00000000      14.58243212        1       1.00000000       0.00000000       0.00000000       0.00000000
H        1.40307756       2.43020162      14.58243212        1       1.00000000       0.00000000       0.00000000       0.00000000
H        4.20923268       2.43020162      14.58243212        1       1.00000000       0.00000000       0.00000000       0.00000000
H        3.93891650       2.45335238      23.93121325        0       1.00000000       0.53551838      -2.33594588       0.35877987
H        1.66068657       1.17635509      19.08317604        0       1.00000000       0.67893157      -0.73593515      -0.22137183
H        5.39978271       0.07812111       5.33611317        0       1.00000000      -1.04226175       0.12595715       2.91766446
H        3.68346014       0.05842975      22.14165912        0       1.00000000      -1.05641396       0.36968561       1.10790898
H        2.81914481       4.16874146       4.59796744        0       1.00000000       0.09647052      -0.33945933      -0.67622122
H        0.28980807       3.64176406      22.22335592        0       1.00000000      -2.00914113       0.28429783       1.69166269
H        1.46682338       0.02248749       7.01378846        0       1.00000000      -1.20268372       0.05532722      -2.68510327
H        2.17415219       2.89864711      21.09964574        0       1.00000000       2.53880857       0.21807634       0.97262242
H        4.30234990       2.31940601       7.19200546        0       1.00000000      -1.34609872      -1.47007596       0.45374012
21
Lattice="5.612310241546866 0.0 0.0 0.0 4.860403243099165 0.0 0.0 0.0 24.582432123328676" Properties=species:S:1:pos:R:3:tags:I:1:masses:R:1:momenta:R:3 KEmax=27.14459056223422 iter=899 volume=670.5618179858607 ns_energy=13.203943602834531 last_walked_iter_clone=764 ns_P=0.0 config_n_global=899 ns_KE=22.101869487601977 pbc="T T F"
H        1.40307756       0.81006721      10.00000000        3       1.00000000       0.00000000       0.00000000       0.00000000
H        4.20923268       0.81006721      10.00000000        3       1.00000000       0.00000000       0.00000000       0.00000000
H        0.00000000       3.24026883      10.00000000        3       1.00000000       0.00000000       0.00000000       0.00000000
H        2.80615512       3.24026883      10.00000000        3       1.00000000       0.00000000       0.00000000       0.00000000
H        0.00000000       1.62013441      12.29121606        2       1.00000000       0.00000000       0.00000000       0.00000000
H        2.80615512       1.62013441      12.29121606        2       1.00000000       0.00000000       0.00000000       0.00000000
H        1.40307756       4.05033604      12.29121606        2       1.00000000       0.00000000       0.00000000       0.00000000
H        4.20923268       4.05033604      12.29121606        2       1.00000000       0.00000000       0.00000000       0.00000000
H        0.00000000       0.00000000      14.58243212        1       1.00000000       0.00000000       0.00000000       0.00000000
H        2.80615512       0.00000000      14.58243212        1       1.00000000       0.00000000       0.00000000       0.00000000
H        1.40307756       2.43020162      14.58243212        1       1.00000000       0.00000000       0.00000000       0.00000000
H        4.20923268       2.43020162      14.58243212        1       1.00000000       0.00000000       0.00000000       0.00000000
H        5.34540362       4.29148550      24.52320770        0       1.00000000       0.60741371      -0.27776146       1.09852999
H        0.28294788       1.62941474      17.46072645        0       1.00000000       0.29461392       0.93664825       1.34983725
H        0.34671842       4.28080884       0.24952524        0       1.00000000       1.26952869       0.23524915      -0.12373974
H        3.61001445       0.64869331      16.66907525        0       1.00000000      -1.59948181       0.20249600       1.55100519
H        3.91813039       0.02751425       7.68405954        0       1.00000000      -2.22768714      -0.89128822      -2.55058795
H        4.02297801       1.26619116      21.75179523        0       1.00000000       0.55693940      -0.66404740       1.00666324
H        2.63426387       0.19981478       5.38273894        0       1.00000000       2.28294309      -0.53592099      -1.03379743
H        1.91428741       2.01319546      19.49395598        0       1.00000000      -1.44269111      -0.72146771       1.40006766
H        1.09839864       1.85299601       6.37127478        0       1.00000000      -1.52135034      -1.40066150      -1.90897479
21
Lattice="5.612310241546866 0.0 0.0 0.0 4.860403243099165 0.0 0.0 0.0 24.582432123328676" Properties=species:S:1:pos:R:3:tags:I:1:masses:R:1:momenta:R:3 KEmax=27.14459056223422 iter=999 volume=670.5618179858607 ns_energy=12.010603040506966 last_walked_iter_clone=801 ns_P=0.0 config_n_global=999 ns_KE=21.025722758473986 pbc="T T F"
H        1.40307756       0.81006721      10.00000000        3       1.00000000       0.00000000       0.00000000       0.00000000
H        4.20923268       0.81006721      10.00000000        3       1.00000000       0.00000000       0.00000000       0.00000000
H        0.00000000       3.24026883      10.00000000        3       1.00000000       0.00000000       0.00000000       0.00000000
H        2.80615512       3.24026883      10.00000000        3       1.00000000       0.00000000       0.00000000       0.00000000
H        0.00000000       1.62013441      12.29121606        2       1.00000000       0.00000000       0.00000000       0.00000000
H        2.80615512       1.62013441      12.29121606        2       1.00000000       0.00000000       0.00000000       0.00000000
H        1.40307756       4.05033604      12.29121606        2       1.00000000       0.00000000       0.00000000       0.00000000
H        4.20923268       4.05033604      12.29121606        2       1.00000000       0.00000000       0.00000000       0.00000000
H        0.00000000       0.00000000      14.58243212        1       1.00000000       0.00000000       0.00000000       0.00000000
H        2.80615512       0.00000000      14.58243212        1       1.00000000       0.00000000       0.00000000       0.00000000
H        1.40307756       2.43020162      14.58243212        1       1.00000000       0.00000000       0.00000000       0.00000000
H        4.20923268       2.43020162      14.58243212        1       1.00000000       0.00000000       0.00000000       0.00000000
H        3.29149327       1.41239059      17.63479048        0       1.00000000      -0.01168520       1.15156982      -0.81763370
H        0.93051941       1.11490223      16.60659523        0       1.00000000       0.11904012       0.80423079       0.05107809