21
Lattice="5.612310241546866 0.0 0.0 0.0 4.860403243099165 0.0 0.0 0.0 24.582432123328676" Properties=species:S:1:pos:R:3:tags:I:1:masses:R:1:momenta:R:3:forces:R:3 KEmax=27.14459056223422 iter=119999 volume=670.5618179858607 ns_energy=-14.08885284562583 last_walked_iter_clone=119930 energy=-14.088852845636163 stress="0.021480023416624486 -7.194396670170433e-09 9.670562228818816e-09 -7.194396670170433e-09 0.02153956585195281 1.873257303781043e-08 9.670562228818816e-09 1.873257303781043e-08 0.01071646846883565" pbc="T T F"
H        1.40307756       0.81006721      10.00000000        3       1.00000000       0.00000000       0.00000000       0.00000000       0.00000000       0.00000000       0.00000000
H        4.20923268       0.81006721      10.00000000        3       1.00000000       0.00000000       0.00000000       0.00000000       0.00000000       0.00000000       0.00000000
H        0.00000000       3.24026883      10.00000000        3       1.00000000       0.00000000       0.00000000       0.00000000       0.00000000       0.00000000       0.00000000
H        2.80615512       3.24026883      10.00000000        3       1.00000000       0.00000000       0.00000000       0.00000000       0.00000000       0.00000000       0.00000000
H        0.00000000       1.62013441      12.29121606        2       1.00000000       0.00000000       0.00000000       0.00000000       0.00000000       0.00000000       0.00000000
H        2.80615512       1.62013441      12.29121606        2       1.00000000       0.00000000       0.00000000       0.00000000       0.00000000       0.00000000       0.00000000
H        1.40307756       4.05033604      12.29121606        2       1.00000000       0.00000000       0.00000000       0.00000000       0.00000000       0.00000000       0.00000000
H        4.20923268       4.05033604      12.29121606        2       1.00000000       0.00000000       0.00000000       0.00000000       0.00000000       0.00000000       0.00000000
H        0.00000000       0.00000000      14.58243212        1       1.00000000       0.00000000       0.00000000       0.00000000       0.00000000       0.00000000       0.00000000
H        2.80615512       0.00000000      14.58243212        1       1.00000000       0.00000000       0.00000000       0.00000000       0.00000000       0.00000000       0.00000000
H        1.40307756       2.43020162      14.58243212        1       1.00000000       0.00000000       0.00000000       0.00000000       0.00000000       0.00000000       0.00000000
H        4.20923268       2.43020162      14.58243212        1       1.00000000       0.00000000       0.00000000       0.00000000       0.00000000       0.00000000       0.00000000
H        4.20923286       4.03408035      16.80115792        0       1.00000000       0.00000127      -0.00000037      -0.00000128      -0.00000111      -0.00000230      -0.00000193
H        4.20922957       0.80893051      19.01550923        0       1.00000000      -0.00000188       0.00000176       0.00000053      -0.00000114       0.00000027      -0.00000072
H        4.20923286       2.43020215       7.77172643        0       1.00000000       0.00000037      -0.00000034       0.00000067       0.00000003       0.00000199       0.00000222
H        2.79885085       1.62444890      16.79643339        0       1.00000000      -0.00000066       0.00000048       0.00000102       0.00000225       0.00000083       0.00000142
H        5.61230947       4.86040405       7.77172743        0       1.00000000      -0.00000020       0.00000011       0.00000100      -0.00000068      -0.00000013      -0.00000150
H        1.40307734       4.05966039      16.83224352        0       1.00000000      -0.00000026      -0.00000015      -0.00000065       0.00000171       0.00000057      -0.00000102
H        2.80615534       4.86040308       7.77172673        0       1.00000000      -0.00000142      -0.00000020      -0.00000000       0.00000182      -0.00000127       0.00000242
H        0.00730471       1.62444868      16.79643445        0       1.00000000      -0.00000144      -0.00000000       0.00000084      -0.00000218       0.00000086      -0.00000139
H        1.40307842       2.43020205       7.77172656        0       1.00000000       0.00000061      -0.00000121       0.00000034      -0.00000141       0.00000076      -0.00000301
21
Lattice="5.612310241546866 0.0 0.0 0.0 4.860403243099165 0.0 0.0 0.0 24.582432123328676" Properties=species:S:1:pos:R:3:tags:I:1:masses:R:1:momenta:R:3:forces:R:3 KEmax=27.14459056223422 iter=119999 volume=670.5618179858607 ns_energy=-14.08885284562591 last_walked_iter_clone=119472 energy=-14.088852845636163 stress="0.021480023416624486 -7.194396670170433e-09 9.670562228818816e-09 -7.194396670170433e-09 0.02153956585195281 1.873257303781043e-08 9.670562228818816e-09 1.873257303781043e-08 0.01071646846883565" pbc="T T F"
H        1.40307756       0.81006721      10.00000000        3       1.00000000       0.00000000       0.00000000       0.00000000       0.00000000       0.00000000       0.00000000
H        4.20923268       0.81006721      10.00000000        3       1.00000000       0.00000000       0.00000000       0.00000000       0.00000000       0.00000000       0.00000000
H        0.00000000       3.24026883      10.00000000        3       1.00000000       0.00000000       0.00000000       0.00000000       0.00000000       0.00000000       0.00000000
H        2.80615512       3.24026883      10.00000000        3       1.00000000       0.00000000       0.00000000       0.00000000       0.00000000       0.00000000       0.00000000
H        0.00000000       1.62013441      12.29121606        2       1.00000000       0.00000000       0.00000000       0.00000000       0.00000000       0.00000000       0.00000000
H        2.80615512       1.62013441      12.29121606        2       1.00000000       0.00000000       0.00000000       0.00000000       0.00000000       0.00000000       0.00000000
H        1.40307756       4.05033604      12.29121606        2       1.00000000       0.00000000       0.00000000       0.00000000       0.00000000       0.00000000       0.00000000
H        4.20923268       4.05033604      12.29121606        2       1.00000000       0.00000000       0.00000000       0.00000000       0.00000000       0.00000000       0.00000000
H        0.00000000       0.00000000      14.58243212        1       1.00000000       0.00000000       0.00000000       0.00000000       0.00000000       0.00000000       0.00000000
H        2.80615512       0.00000000      14.58243212        1       1.00000000       0.00000000       0.00000000       0.00000000       0.00000000       0.00000000       0.00000000
H        1.40307756       2.43020162      14.58243212        1       1.00000000       0.00000000       0.00000000       0.00000000       0.00000000       0.00000000       0.00000000
H        4.20923268       2.43020162      14.58243212        1       1.00000000       0.00000000       0.00000000       0.00000000       0.00000000       0.00000000       0.00000000
H        4.20923273       4.03408002      16.80115768        0       1.00000000       0.00000005       0.00000031       0.00000037      -0.00000111      -0.00000230      -0.00000193
H        4.20923253       0.80892823      19.01550900        0       1.00000000      -0.00000053       0.00000000       0.00000144      -0.00000114       0.00000027      -0.00000072
H        4.20923302       2.43020179       7.77172779        0       1.00000000       0.00000013      -0.00000105       0.00000020       0.00000003       0.00000199       0.00000222
H        2.79885126       1.62444955      16.79643401        0       1.00000000      -0.00000034      -0.00000043       0.00000038       0.00000225       0.00000083       0.00000142
H        0.00000065       4.86040309       7.77172763        0       1.00000000      -0.00000061      -0.00000089      -0.00000232      -0.00000068      -0.00000013      -0.00000150
H        1.40307786       4.05966125      16.83224185        0       1.00000000       0.00000137      -0.00000075       0.00000049       0.00000171       0.00000057      -0.00000102
H        2.80615492       0.00000018       7.77172766        0       1.00000000       0.00000025       0.00000038       0.00000075       0.00000182      -0.00000127       0.00000242
H        0.00730448       1.62444918      16.79643509        0       1.00000000       0.00000103       0.00000046      -0.00000205      -0.00000218       0.00000086      -0.00000139
H        1.40307781       2.43020149       7.77172838        0       1.00000000      -0.00000031       0.00000103       0.00000083      -0.00000141       0.00000076      -0.00000301
21
Lattice="5.612310241546866 0.0 0.0 0.0 4.860403243099165 0.0 0.0 0.0 24.582432123328676" Properties=species:S:1:pos:R:3:tags:I:1:masses:R:1:momenta:R:3:forces:R:3 KEmax=27.14459056223422 iter=119999 volume=670.5618179858607 ns_energy=-14.088852845625643 last_walked_iter_clone=119800 energy=-14.088852845636163 stress="0.021480023416624486 -7.194396670170433e-09 9.670562228818816e-09 -7.194396670170433e-09 0.02153956585195281 1.873257303781043e-08 9.670562228818816e-09 1.873257303781043e-08 0.01071646846883565" pbc="T T F"
H        1.40307756       0.81006721      10.00000000        3       1.00000000       0.00000000       0.00000000       0.00000000       0.00000000       0.00000000       0.00000000
H        4.20923268       0.81006721      10.00000000        3       1.00000000       0.00000000       0.00000000       0.00000000       0.00000000       0.00000000       0.00000000
H        0.00000000       3.24026883      10.00000000        3       1.00000000       0.00000000       0.00000000       0.00000000       0.00000000       0.00000000       0.00000000
H        2.80615512       3.24026883      10.00000000        3       1.00000000       0.00000000       0.00000000       0.00000000       0.00000000       0.00000000       0.00000000
H        0.00000000       1.62013441      12.29121606        2       1.00000000       0.00000000       0.00000000       0.00000000       0.00000000       0.00000000       0.00000000
H        2.80615512       1.62013441      12.29121606        2       1.00000000       0.00000000       0.00000000       0.00000000       0.00000000       0.00000000       0.00000000
H        1.40307756       4.05033604      12.29121606        2       1.00000000       0.00000000       0.00000000       0.00000000       0.00000000       0.00000000       0.00000000
H        4.20923268       4.05033604      12.29121606        2       1.00000000       0.00000000       0.00000000       0.00000000       0.00000000       0.00000000       0.00000000
H        0.00000000       0.00000000      14.58243212        1       1.00000000       0.00000000       0.00000000       0.00000000       0.00000000       0.00000000       0.00000000
H        2.80615512       0.00000000      14.58243212        1       1.00000000       0.00000000       0.00000000       0.00000000       0.00000000       0.00000000       0.00000000
H        1.40307756       2.43020162      14.58243212        1       1.00000000       0.00000000       0.00000000       0.00000000       0.00000000       0.00000000       0.00000000
H        4.20923268       2.43020162      14.58243212        1       1.00000000       0.00000000       0.00000000       0.00000000       0.00000000       0.00000000       0.00000000
H        4.20923280       4.03408109      16.80115753        0       1.00000000       0.00000099      -0.00000158      -0.00000128      -0.00000111      -0.00000230      -0.00000193
H        4.20923081       0.80892867      19.01550948        0       1.00000000      -0.00000041      -0.00000038      -0.00000092      -0.00000114       0.00000027      -0.00000072
H        4.20923250       2.43020184       7.77172706        0       1.00000000      -0.00000037      -0.00000077      -0.00000055       0.00000003       0.00000199       0.00000222
H        2.79885172       1.62445048      16.79643352        0       1.00000000       0.00000023       0.00000003      -0.00000082       0.00000225       0.00000083       0.00000142
H       -0.00000027       0.00000010       7.77172764        0       1.00000000       0.00000018       0.00000043      -0.00000048      -0.00000068      -0.00000013      -0.00000150
H        1.40307774       4.05966226      16.83224230        0       1.00000000       0.00000105       0.00000095      -0.00000043       0.00000171       0.00000057      -0.00000102
H        2.80615498       0.00000012       7.77172646        0       1.00000000      -0.00000131      -0.00000093      -0.00000141       0.00000182      -0.00000127       0.00000242
H        0.00730425       1.62444917      16.79643470        0       1.00000000      -0.00000057      -0.00000121      -0.00000162      -0.00000218       0.00000086      -0.00000139
H        1.40307856       2.43020128       7.77172715        0       1.00000000       0.00000090      -0.00000097       0.00000144      -0.00000141       0.00000076      -0.00000301
21
Lattice="5.612310241546866 0.0 0.0 0.0 4.860403243099165 0.0 0.0 0.0 24.582432123328676" Properties=species:S:1:pos:R:3:tags:I:1:masses:R:1:momenta:R:3:forces:R:3 KEmax=27.14459056223422 iter=119999 volume=670.5618179858607 ns_energy=-14.08885284562569 last_walked_iter_clone=119915 energy=-14.088852845636163 stress="0.021480023416624486 -7.194396670170433e-09 9.670562228818816e-09 -7.194396670170433e-09 0.02153956585195281 1.873257303781043e-08 9.670562228818816e-09 1.873257303781043e-08 0.01071646846883565" pbc="T T F"
H        1.40307756       0.81006721      10.00000000        3       1.00000000       0.00000000       0.00000000       0.00000000       0.00000000       0.00000000       0.00000000
H        4.20923268       0.81006721      10.00000000        3       1.00000000       0.00000000       0.00000000       0.00000000       0.00000000       0.00000000       0.00000000
H        0.00000000       3.24026883      10.00000000        3       1.00000000       0.00000000       0.00000000       0.00000000       0.00000000       0.00000000       0.00000000
H        2.80615512       3.24026883      10.00000000        3       1.00000000       0.00000000       0.00000000       0.00000000       0.00000000       0.00000000       0.00000000
H        0.00000000       1.62013441      12.29121606        2       1.00000000       0.00000000       0.00000000       0.00000000       0.00000000       0.00000000       0.00000000
H        2.80615512       1.62013441      12.29121606        2       1.00000000       0.00000000       0.00000000       0.00000000       0.00000000       0.00000000       0.00000000
H        1.40307756       4.05033604      12.29121606        2       1.00000000       0.00000000       0.00000000       0.00000000       0.00000000       0.00000000       0.00000000
H        4.20923268       4.05033604      12.29121606        2       1.00000000       0.00000000       0.00000000       0.00000000       0.00000000       0.00000000       0.00000000
H        0.00000000       0.00000000      14.58243212        1       1.00000000       0.00000000       0.00000000       0.00000000       0.00000000       0.00000000       0.00000000
H        2.80615512       0.00000000      14.58243212        1       1.00000000       0.00000000       0.00000000       0.00000000       0.00000000       0.00000000       0.00000000
H        1.40307756       2.43020162      14.58243212        1       1.00000000       0.00000000       0.00000000       0.00000000       0.00000000       0.00000000       0.00000000
H        4.20923268       2.43020162      14.58243212        1       1.00000000       0.00000000       0.00000000       0.00000000       0.00000000       0.00000000       0.00000000
H        4.20923312       4.03408074      16.80115674        0       1.00000000      -0.00000003       0.00000005       0.00000023      -0.00000111      -0.00000230      -0.00000193
H        4.20923507       0.80893033      19.01550775        0       1.00000000      -0.00000028      -0.00000208       0.00000175      -0.00000114       0.00000027      -0.00000072
H        4.20923265       2.43020093       7.77172649        0       1.00000000      -0.00000045       0.00000029      -0.00000014       0.00000003       0.00000199       0.00000222
H        2.79885075       1.62444853      16.79643487        0       1.00000000       0.00000058       0.00000033      -0.00000123       0.00000225       0.00000083       0.00000142
H       -0.00000018       0.00000027       7.77172694        0       1.00000000       0.00000087      -0.00000101      -0.00000025      -0.00000068      -0.00000013      -0.00000150
H        1.40307661       4.05966086      16.83224281        0       1.00000000      -0.00000117       0.00000110      -0.00000059       0.00000171       0.00000057      -0.00000102
H        2.80615500       0.00000057       7.77172726        0       1.00000000      -0.00000010       0.00000023      -0.00000044       0.00000182      -0.00000127       0.00000242
H        0.00730413       1.62444916      16.79643264        0       1.00000000       0.00000028       0.00000052       0.00000083      -0.00000218       0.00000086      -0.00000139
H        1.40307727       2.43020235       7.77172750        0       1.00000000      -0.00000092      -0.00000058       0.00000037      -0.00000141       0.00000076      -0.00000301
21
Lattice="5.612310241546866 0.0 0.0 0.0 4.860403243099165 0.0 0.0 0.0 24.582432123328676" Properties=species:S:1:pos:R:3:tags:I:1:masses:R:1:momenta:R:3:forces:R:3 KEmax=27.14459056223422 iter=119999 volume=670.5618179858607 ns_energy=-14.088852845625729 last_walked_iter_clone=119894 energy=-14.088852845636163 stress="0.021480023416624486 -7.194396670170433e-09 9.670562228818816e-09 -7.194396670170433e-09 0.02153956585195281 1.873257303781043e-08 9.670562228818816e-09 1.873257303781043e-08 0.01071646846883565" pbc="T T F"
H        1.40307756       0.81006721      10.00000000        3       1.00000000       0.00000000       0.00000000       0.00000000       0.00000000       0.00000000       0.00000000
H        4.20923268       0.81006721      10.00000000        3       1.00000000       0.00000000       0.00000000       0.00000000       0.00000000       0.00000000       0.00000000
H        0.00000000       3.24026883      10.00000000        3       1.00000000       0.00000000       0.00000000       0.00000000       0.00000000       0.00000000       0.00000000
H        2.80615512       3.24026883      10.00000000        3       1.00000000       0.00000000       0.00000000       0.00000000       0.00000000       0.00000000       0.00000000
H        0.00000000       1.62013441      12.29121606        2       1.00000000       0.00000000       0.00000000       0.00000000       0.00000000       0.00000000       0.00000000
H        2.80615512       1.62013441      12.29121606        2       1.00000000       0.00000000       0.00000000       0.00000000       0.00000000       0.00000000       0.00000000
H        1.40307756       4.05033604      12.29121606        2       1.00000000       0.00000000       0.00000000       0.00000000       0.00000000       0.00000000       0.00000000
H        4.20923268       4.05033604      12.29121606        2       1.00000000       0.00000000       0.00000000       0.00000000       0.00000000       0.00000000       0.00000000
H        0.00000000       0.00000000      14.58243212        1       1.00000000       0.00000000       0.00000000       0.00000000       0.00000000       0.00000000       0.00000000
H        2.80615512       0.00000000      14.58243212        1       1.00000000       0.00000000       0.00000000       0.00000000       0.00000000       0.00000000       0.00000000
H        1.40307756       2.43020162      14.58243212        1       1.00000000       0.00000000       0.00000000       0.00000000       0.00000000       0.00000000       0.00000000
H        4.20923268       2.43020162      14.58243212        1       1.00000000       0.00000000       0.00000000       0.00000000       0.00000000       0.00000000       0.00000000
H        4.20923367       4.03408015      16.80115727        0       1.00000000      -0.00000027       0.00000090       0.00000024      -0.00000111      -0.00000230      -0.00000193
H        4.20923186       0.80892977      19.01550881        0       1.00000000       0.00000042      -0.00000265       0.00000003      -0.00000114       0.00000027      -0.00000072
H        4.20923342       2.43020211       7.77172682        0       1.00000000      -0.00000062       0.00000061       0.00000013       0.00000003       0.00000199       0.00000222
H        2.79885073       1.62444878      16.79643423        0       1.00000000       0.00000024      -0.00000004      -0.00000047       0.00000225       0.00000083       0.00000142
H        0.00000135       4.86040338       7.77172687        0       1.00000000       0.00000218       0.00000088       0.00000018      -0.00000068      -0.00000013      -0.00000150
H        1.40307786       4.05966112      16.83224356        0       1.00000000      -0.00000099       0.00000055      -0.00000064       0.00000171       0.00000057      -0.00000102
H        2.80615580       4.86040284       7.77172713        0       1.00000000      -0.00000036      -0.00000038       0.00000038       0.00000182      -0.00000127       0.00000242
H        0.00730445       1.62444838      16.79643336        0       1.00000000      -0.00000112      -0.00000078      -0.00000018      -0.00000218       0.00000086      -0.00000139
H        1.40307949       2.43020155       7.77172767        0       1.00000000      -0.00000156       0.00000011      -0.00000039      -0.00000141       0.00000076      -0.00000301
21
Lattice="5.612310241546866 0.0 0.0 0.0 4.860403243099165 0.0 0.0 0.0 24.582432123328676" Properties=species:S:1:pos:R:3:tags:I:1:masses:R:1:momenta:R:3:forces:R:3 KEmax=27.14459056223422 iter=119999 volume=670.5618179858607 ns_energy=-14.088852845625873 last_walked_iter_clone=119927 energy=-14.088852845636163 stress="0.021480023416624486 -7.194396670170433e-09 9.670562228818816e-09 -7.194396670170433e-09 0.02153956585195281 1.873257303781043e-08 9.670562228818816e-09 1.873257303781043e-08 0.01071646846883565" pbc="T T F"
H        1.40307756       0.81006721      10.00000000        3       1.00000000       0.00000000       0.00000000       0.00000000       0.00000000       0.00000000       0.00000000
H        4.20923268       0.81006721      10.00000000        3       1.00000000       0.00000000       0.00000000       0.00000000       0.00000000       0.00000000       0.00000000
H        0.00000000       3.24026883      10.00000000        3       1.00000000       0.00000000       0.00000000       0.00000000       0.00000000       0.00000000       0.00000000
H        2.80615512       3.24026883      10.00000000        3       1.00000000       0.00000000       0.00000000       0.00000000       0.00000000       0.00000000       0.00000000
H        0.00000000       1.62013441      12.29121606        2       1.00000000       0.00000000       0.00000000       0.00000000       0.00000000       0.00000000       0.00000000
H        2.80615512       1.62013441      12.29121606        2       1.00000000       0.00000000       0.00000000       0.00000000       0.00000000       0.00000000       0.00000000
H        1.40307756       4.05033604      12.29121606        2       1.00000000       0.00000000       0.00000000       0.00000000       0.00000000       0.00000000       0.00000000
H        4.20923268       4.05033604      12.29121606        2       1.00000000       0.00000000       0.00000000       0.00000000       0.00000000       0.00000000       0.00000000
H        0.00000000       0.00000000      14.58243212        1       1.00000000       0.00000000       0.00000000       0.00000000       0.00000000       0.00000000       0.00000000
H        2.80615512       0.00000000      14.58243212        1       1.00000000       0.00000000       0.00000000       0.00000000       0.00000000       0.00000000       0.00000000
H        1.40307756       2.43020162      14.58243212        1       1.00000000       0.00000000       0.00000000       0.00000000       0.00000000       0.00000000       0.00000000
H        4.20923268       2.43020162      14.58243212        1       1.00000000       0.00000000       0.00000000       0.00000000       0.00000000       0.00000000       0.00000000
H        4.20923182       4.03407942      16.80115677        0       1.00000000       0.00000042      -0.00000067      -0.00000016      -0.00000111      -0.00000230      -0.00000193
H        4.20923105       0.80892527      19.01551004        0       1.00000000      -0.00000048       0.00000157      -0.00000012      -0.00000114       0.00000027      -0.00000072
H        4.20923191       2.43020178       7.77172744        0       1.00000000       0.00000095      -0.00000046       0.00000071       0.00000003       0.00000199       0.00000222
H        2.79885141       1.62444887      16.79643486        0       1.00000000      -0.00000018       0.00000099       0.00000061       0.00000225       0.00000083       0.00000142
H        5.61230948      -0.00000040       7.77172637        0       1.00000000      -0.00000209       0.00000025      -0.00000006      -0.00000068      -0.00000013      -0.00000150
H        1.40307661       4.05965997      16.83224262        0       1.00000000      -0.00000154      -0.00000108      -0.00000081       0.00000171       0.00000057      -0.00000102
H        2.80615506       0.00000060       7.77172682        0       1.00000000       0.00000032      -0.00000166       0.00000067       0.00000182      -0.00000127       0.00000242
H        0.00730388       1.62444832      16.79643487        0       1.00000000      -0.00000104      -0.00000076      -0.00000001      -0.00000218       0.00000086      -0.00000139
H        1.40307701       2.43020196       7.77172640        0       1.00000000       0.00000105      -0.00000017      -0.00000025      -0.00000141       0.00000076      -0.00000301
21
Lattice="5.612310241546866 0.0 0.0 0.0 4.860403243099165 0.0 0.0 0.0 24.582432123328676" Properties=species:S:1:pos:R:3:tags:I:1:masses:R:1:momenta:R:3:forces:R:3 KEmax=27.14459056223422 iter=119999 volume=670.5618179858607 ns_energy=-14.088852845625656 last_walked_iter_clone=119924 energy=-14.088852845636163 stress="0.021480023416624486 -7.194396670170433e-09 9.670562228818816e-09 -7.194396670170433e-09 0.02153956585195281 1.873257303781043e-08 9.670562228818816e-09 1.873257303781043e-08 0.01071646846883565" pbc="T T F"
H        1.40307756       0.81006721      10.00000000        3       1.00000000       0.00000000       0.00000000       0.00000000       0.00000000       0.00000000       0.00000000
H        4.20923268       0.81006721      10.00000000        3       1.00000000       0.00000000       0.00000000       0.00000000       0.00000000       0.00000000       0.00000000
H        0.00000000       3.24026883      10.00000000        3       1.00000000       0.00000000       0.00000000       0.00000000       0.00000000       0.00000000       0.00000000
H        2.80615512       3.24026883      10.00000000        3       1.00000000       0.00000000       0.00000000       0.00000000       0.00000000       0.00000000       0.00000000
H        0.00000000       1.62013441      12.29121606        2       1.00000000       0.00000000       0.00000000       0.00000000       0.00000000       0.00000000       0.00000000
H        2.80615512       1.62013441      12.29121606        2       1.00000000       0.00000000       0.00000000       0.00000000       0.00000000       0.00000000       0.00000000
H        1.40307756       4.05033604      12.29121606        2       1.00000000       0.00000000       0.00000000       0.00000000       0.00000000       0.00000000       0.00000000
H        4.20923268       4.05033604      12.29121606        2       1.00000000       0.00000000       0.00000000       0.00000000       0.00000000       0.00000000       0.00000000
H        0.00000000       0.00000000      14.58243212        1       1.00000000       0.00000000       0.00000000       0.00000000       0.00000000       0.00000000       0.00000000
H        2.80615512       0.00000000      14.58243212        1       1.00000000       0.00000000       0.00000000       0.00000000       0.00000000       0.00000000       0.00000000
H        1.40307756       2.43020162      14.58243212        1       1.00000000       0.00000000       0.00000000       0.00000000       0.00000000       0.00000000       0.00000000
H        4.20923268       2.43020162      14.58243212        1       1.00000000       0.00000000       0.00000000       0.00000000       0.00000000       0.00000000       0.00000000
H        4.20923246       4.03407983      16.80115645        0       1.00000000      -0.00000074      -0.00000010      -0.00000113      -0.00000111      -0.00000230      -0.00000193
H        4.20923223       0.80892576      19.01550950        0       1.00000000      -0.00000007       0.00000064       0.00000162      -0.00000114       0.00000027      -0.00000072
H        4.20923139       2.43020162       7.77172688        0       1.00000000      -0.00000029      -0.00000028      -0.00000013       0.00000003       0.00000199       0.00000222
H        2.79885028       1.62444867      16.79643445        0       1.00000000      -0.00000108      -0.00000082      -0.00000066       0.00000225       0.00000083       0.00000142
H        5.61230997       4.86040383       7.77172695        0       1.00000000      -0.00000031      -0.00000036      -0.00000107      -0.00000068      -0.00000013      -0.00000150
H        1.40307716       4.05966059      16.83224252        0       1.00000000      -0.00000102      -0.00000020       0.00000110       0.00000171       0.00000057      -0.00000102