19
Lattice="5.612310241546866 0.0 0.0 0.0 4.860403243099165 0.0 0.0 0.0 24.582432123328676" Properties=species:S:1:pos:R:3:tags:I:1:masses:R:1:momenta:R:3:forces:R:3 KEmax=24.559391461069055 iter=188971 volume=670.5618179858607 ns_energy=-12.523476319992406 last_walked_iter_clone=188699 energy=-12.523476320060906 stress="0.02400491285631565 -2.3788654016056232e-08 3.047481881200885e-08 -2.3788654016056232e-08 0.024132735380547898 -1.8106003492018795e-08 3.047481881200885e-08 -1.8106003492018795e-08 0.012739537456992007" pbc="T T F"
H        1.40307756       0.81006721      10.00000000        3       1.00000000       0.00000000       0.00000000       0.00000000       0.00000000       0.00000000       0.00000000
H        4.20923268       0.81006721      10.00000000        3       1.00000000       0.00000000       0.00000000       0.00000000       0.00000000       0.00000000       0.00000000
H        0.00000000       3.24026883      10.00000000        3       1.00000000       0.00000000       0.00000000       0.00000000       0.00000000       0.00000000       0.00000000
H        2.80615512       3.24026883      10.00000000        3       1.00000000       0.00000000       0.00000000       0.00000000       0.00000000       0.00000000       0.00000000
H        0.00000000       1.62013441      12.29121606        2       1.00000000       0.00000000       0.00000000       0.00000000       0.00000000       0.00000000       0.00000000
H        2.80615512       1.62013441      12.29121606        2       1.00000000       0.00000000       0.00000000       0.00000000       0.00000000       0.00000000       0.00000000
H        1.40307756       4.05033604      12.29121606        2       1.00000000       0.00000000       0.00000000       0.00000000       0.00000000       0.00000000       0.00000000
H        4.20923268       4.05033604      12.29121606        2       1.00000000       0.00000000       0.00000000       0.00000000       0.00000000       0.00000000       0.00000000
H        0.00000000       0.00000000      14.58243212        1       1.00000000       0.00000000       0.00000000       0.00000000       0.00000000       0.00000000       0.00000000
H        2.80615512       0.00000000      14.58243212        1       1.00000000       0.00000000       0.00000000       0.00000000       0.00000000       0.00000000       0.00000000
H        1.40307756       2.43020162      14.58243212        1       1.00000000       0.00000000       0.00000000       0.00000000       0.00000000       0.00000000       0.00000000
H        4.20923268       2.43020162      14.58243212        1       1.00000000       0.00000000       0.00000000       0.00000000       0.00000000       0.00000000       0.00000000
H        1.40307691       4.05033684       7.77136629        0       1.00000000       0.00000065      -0.00000179       0.00000009      -0.00000099      -0.00000301       0.00000668
H        4.20618982       4.05032682      16.81107093        0       1.00000000      -0.00000317       0.00000411       0.00000266      -0.00000093       0.00000272      -0.00000706
H        4.20923165       4.05033704       7.77136985        0       1.00000000       0.00000468      -0.00000327      -0.00000118       0.00000120       0.00000052       0.00000505
H        0.00000009       1.62012514      16.81106401        0       1.00000000      -0.00000036       0.00000263       0.00000197      -0.00000042      -0.00000610       0.00000289
H        5.61230931       1.62013694       7.77136699        0       1.00000000      -0.00000490       0.00000048      -0.00000080      -0.00000275       0.00000245      -0.00000007
H        1.40612043       4.05032291      16.81107048        0       1.00000000       0.00000022       0.00000473      -0.00000283      -0.00000317       0.00000478      -0.00000323
H        2.80615421       1.62013459       7.77136502        0       1.00000000      -0.00000215       0.00000028      -0.00000205       0.00000139      -0.00000053      -0.00000229
19
Lattice="5.612310241546866 0.0 0.0 0.0 4.860403243099165 0.0 0.0 0.0 24.582432123328676" Properties=species:S:1:pos:R:3:tags:I:1:masses:R:1:momenta:R:3:forces:R:3 KEmax=24.559391461069055 iter=188971 volume=670.5618179858607 ns_energy=-12.523476319993538 last_walked_iter_clone=188395 energy=-12.523476320060906 stress="0.02400491285631565 -2.3788654016056232e-08 3.047481881200885e-08 -2.3788654016056232e-08 0.024132735380547898 -1.8106003492018795e-08 3.047481881200885e-08 -1.8106003492018795e-08 0.012739537456992007" pbc="T T F"
H        1.40307756       0.81006721      10.00000000        3       1.00000000       0.00000000       0.00000000       0.00000000       0.00000000       0.00000000       0.00000000
H        4.20923268       0.81006721      10.00000000        3       1.00000000       0.00000000       0.00000000       0.00000000       0.00000000       0.00000000       0.00000000
H        0.00000000       3.24026883      10.00000000        3       1.00000000       0.00000000       0.00000000       0.00000000       0.00000000       0.00000000       0.00000000
H        2.80615512       3.24026883      10.00000000        3       1.00000000       0.00000000       0.00000000       0.00000000       0.00000000       0.00000000       0.00000000
H        0.00000000       1.62013441      12.29121606        2       1.00000000       0.00000000       0.00000000       0.00000000       0.00000000       0.00000000       0.00000000
H        2.80615512       1.62013441      12.29121606        2       1.00000000       0.00000000       0.00000000       0.00000000       0.00000000       0.00000000       0.00000000
H        1.40307756       4.05033604      12.29121606        2       1.00000000       0.00000000       0.00000000       0.00000000       0.00000000       0.00000000       0.00000000
H        4.20923268       4.05033604      12.29121606        2       1.00000000       0.00000000       0.00000000       0.00000000       0.00000000       0.00000000       0.00000000
H        0.00000000       0.00000000      14.58243212        1       1.00000000       0.00000000       0.00000000       0.00000000       0.00000000       0.00000000       0.00000000
H        2.80615512       0.00000000      14.58243212        1       1.00000000       0.00000000       0.00000000       0.00000000       0.00000000       0.00000000       0.00000000
H        1.40307756       2.43020162      14.58243212        1       1.00000000       0.00000000       0.00000000       0.00000000       0.00000000       0.00000000       0.00000000
H        4.20923268       2.43020162      14.58243212        1       1.00000000       0.00000000       0.00000000       0.00000000       0.00000000       0.00000000       0.00000000
H        1.40307804       4.05033722       7.77136406        0       1.00000000      -0.00000054       0.00000244      -0.00000014      -0.00000099      -0.00000301       0.00000668
H        4.20619071       4.05032989      16.81107077        0       1.00000000       0.00000368      -0.00000205       0.00000314      -0.00000093       0.00000272      -0.00000706
H        4.20923577       4.05033807       7.77136779        0       1.00000000       0.00000207      -0.00000024       0.00000214       0.00000120       0.00000052       0.00000505
H       -0.00000256       1.62012955      16.81106486        0       1.00000000      -0.00000447       0.00000090       0.00000100      -0.00000042      -0.00000610       0.00000289
H        0.00000051       1.62013626       7.77136679        0       1.00000000      -0.00000006       0.00000119      -0.00000127      -0.00000275       0.00000245      -0.00000007
H        1.40611895       4.05032702      16.81107280        0       1.00000000      -0.00000239      -0.00000482       0.00000054      -0.00000317       0.00000478      -0.00000323
H        2.80615467       1.62013718       7.77136910        0       1.00000000      -0.00000121       0.00000131      -0.00000038       0.00000139      -0.00000053      -0.00000229
19
Lattice="5.612310241546866 0.0 0.0 0.0 4.860403243099165 0.0 0.0 0.0 24.582432123328676" Properties=species:S:1:pos:R:3:tags:I:1:masses:R:1:momenta:R:3:forces:R:3 KEmax=24.559391461069055 iter=188971 volume=670.5618179858607 ns_energy=-12.523476319993298 last_walked_iter_clone=188530 energy=-12.523476320060906 stress="0.02400491285631565 -2.3788654016056232e-08 3.047481881200885e-08 -2.3788654016056232e-08 0.024132735380547898 -1.8106003492018795e-08 3.047481881200885e-08 -1.8106003492018795e-08 0.012739537456992007" pbc="T T F"
H        1.40307756       0.81006721      10.00000000        3       1.00000000       0.00000000       0.00000000       0.00000000       0.00000000       0.00000000       0.00000000
H        4.20923268       0.81006721      10.00000000        3       1.00000000       0.00000000       0.00000000       0.00000000       0.00000000       0.00000000       0.00000000
H        0.00000000       3.24026883      10.00000000        3       1.00000000       0.00000000       0.00000000       0.00000000       0.00000000       0.00000000       0.00000000
H        2.80615512       3.24026883      10.00000000        3       1.00000000       0.00000000       0.00000000       0.00000000       0.00000000       0.00000000       0.00000000
H        0.00000000       1.62013441      12.29121606        2       1.00000000       0.00000000       0.00000000       0.00000000       0.00000000       0.00000000       0.00000000
H        2.80615512       1.62013441      12.29121606        2       1.00000000       0.00000000       0.00000000       0.00000000       0.00000000       0.00000000       0.00000000
H        1.40307756       4.05033604      12.29121606        2       1.00000000       0.00000000       0.00000000       0.00000000       0.00000000       0.00000000       0.00000000
H        4.20923268       4.05033604      12.29121606        2       1.00000000       0.00000000       0.00000000       0.00000000       0.00000000       0.00000000       0.00000000
H        0.00000000       0.00000000      14.58243212        1       1.00000000       0.00000000       0.00000000       0.00000000       0.00000000       0.00000000       0.00000000
H        2.80615512       0.00000000      14.58243212        1       1.00000000       0.00000000       0.00000000       0.00000000       0.00000000       0.00000000       0.00000000
H        1.40307756       2.43020162      14.58243212        1       1.00000000       0.00000000       0.00000000       0.00000000       0.00000000       0.00000000       0.00000000
H        4.20923268       2.43020162      14.58243212        1       1.00000000       0.00000000       0.00000000       0.00000000       0.00000000       0.00000000       0.00000000
H        1.40307774       4.05033584       7.77136787        0       1.00000000      -0.00000078      -0.00000113       0.00000376      -0.00000099      -0.00000301       0.00000668
H        4.20618771       4.05032499      16.81107036        0       1.00000000       0.00000202       0.00000294      -0.00000127      -0.00000093       0.00000272      -0.00000706
H        4.20923335       4.05033385       7.77136900        0       1.00000000      -0.00000183      -0.00000484       0.00000046       0.00000120       0.00000052       0.00000505
H        5.61230811       1.62012510      16.81106584        0       1.00000000      -0.00000019      -0.00000015       0.00000262      -0.00000042      -0.00000610       0.00000289
H       -0.00000223       1.62013252       7.77136726        0       1.00000000      -0.00000224       0.00000150       0.00000130      -0.00000275       0.00000245      -0.00000007
H        1.40611801       4.05032305      16.81107055        0       1.00000000       0.00000488      -0.00000374       0.00000401      -0.00000317       0.00000478      -0.00000323
H        2.80615392       1.62013604       7.77136719        0       1.00000000       0.00000076       0.00000058       0.00000372       0.00000139      -0.00000053      -0.00000229
19
Lattice="5.612310241546866 0.0 0.0 0.0 4.860403243099165 0.0 0.0 0.0 24.582432123328676" Properties=species:S:1:pos:R:3:tags:I:1:masses:R:1:momenta:R:3:forces:R:3 KEmax=24.559391461069055 iter=188971 volume=670.5618179858607 ns_energy=-12.523476319992836 last_walked_iter_clone=188892 energy=-12.523476320060906 stress="0.02400491285631565 -2.3788654016056232e-08 3.047481881200885e-08 -2.3788654016056232e-08 0.024132735380547898 -1.8106003492018795e-08 3.047481881200885e-08 -1.8106003492018795e-08 0.012739537456992007" pbc="T T F"
H        1.40307756       0.81006721      10.00000000        3       1.00000000       0.00000000       0.00000000       0.00000000       0.00000000       0.00000000       0.00000000
H        4.20923268       0.81006721      10.00000000        3       1.00000000       0.00000000       0.00000000       0.00000000       0.00000000       0.00000000       0.00000000
H        0.00000000       3.24026883      10.00000000        3       1.00000000       0.00000000       0.00000000       0.00000000       0.00000000       0.00000000       0.00000000
H        2.80615512       3.24026883      10.00000000        3       1.00000000       0.00000000       0.00000000       0.00000000       0.00000000       0.00000000       0.00000000
H        0.00000000       1.62013441      12.29121606        2       1.00000000       0.00000000       0.00000000       0.00000000       0.00000000       0.00000000       0.00000000
H        2.80615512       1.62013441      12.29121606        2       1.00000000       0.00000000       0.00000000       0.00000000       0.00000000       0.00000000       0.00000000
H        1.40307756       4.05033604      12.29121606        2       1.00000000       0.00000000       0.00000000       0.00000000       0.00000000       0.00000000       0.00000000
H        4.20923268       4.05033604      12.29121606        2       1.00000000       0.00000000       0.00000000       0.00000000       0.00000000       0.00000000       0.00000000
H        0.00000000       0.00000000      14.58243212        1       1.00000000       0.00000000       0.00000000       0.00000000       0.00000000       0.00000000       0.00000000
H        2.80615512       0.00000000      14.58243212        1       1.00000000       0.00000000       0.00000000       0.00000000       0.00000000       0.00000000       0.00000000
H        1.40307756       2.43020162      14.58243212        1       1.00000000       0.00000000       0.00000000       0.00000000       0.00000000       0.00000000       0.00000000
H        4.20923268       2.43020162      14.58243212        1       1.00000000       0.00000000       0.00000000       0.00000000       0.00000000       0.00000000       0.00000000
H        1.40307949       4.05033452       7.77136532        0       1.00000000      -0.00000111      -0.00000423      -0.00000257      -0.00000099      -0.00000301       0.00000668
H        4.20618675       4.05032476      16.81106698        0       1.00000000      -0.00000094       0.00000116       0.00000208      -0.00000093       0.00000272      -0.00000706
H        4.20923356       4.05033762       7.77136759        0       1.00000000       0.00000021       0.00000150      -0.00000261       0.00000120       0.00000052       0.00000505
H       -0.00000422       1.62012576      16.81106534        0       1.00000000      -0.00000134      -0.00000005       0.00000192      -0.00000042      -0.00000610       0.00000289
H       -0.00000148       1.62013370       7.77136518        0       1.00000000      -0.00000060      -0.00000050       0.00000003      -0.00000275       0.00000245      -0.00000007
H        1.40611871       4.05032690      16.81107256        0       1.00000000      -0.00000089      -0.00000555      -0.00000058      -0.00000317       0.00000478      -0.00000323
H        2.80615390       1.62013517       7.77136609        0       1.00000000      -0.00000123       0.00000241      -0.00000019       0.00000139      -0.00000053      -0.00000229
19
Lattice="5.612310241546866 0.0 0.0 0.0 4.860403243099165 0.0 0.0 0.0 24.582432123328676" Properties=species:S:1:pos:R:3:tags:I:1:masses:R:1:momenta:R:3:forces:R:3 KEmax=24.559391461069055 iter=188971 volume=670.5618179858607 ns_energy=-12.523476319992026 last_walked_iter_clone=188920 energy=-12.523476320060906 stress="0.02400491285631565 -2.3788654016056232e-08 3.047481881200885e-08 -2.3788654016056232e-08 0.024132735380547898 -1.8106003492018795e-08 3.047481881200885e-08 -1.8106003492018795e-08 0.012739537456992007" pbc="T T F"
H        1.40307756       0.81006721      10.00000000        3       1.00000000       0.00000000       0.00000000       0.00000000       0.00000000       0.00000000       0.00000000
H        4.20923268       0.81006721      10.00000000        3       1.00000000       0.00000000       0.00000000       0.00000000       0.00000000       0.00000000       0.00000000
H        0.00000000       3.24026883      10.00000000        3       1.00000000       0.00000000       0.00000000       0.00000000       0.00000000       0.00000000       0.00000000
H        2.80615512       3.24026883      10.00000000        3       1.00000000       0.00000000       0.00000000       0.00000000       0.00000000       0.00000000       0.00000000
H        0.00000000       1.62013441      12.29121606        2       1.00000000       0.00000000       0.00000000       0.00000000       0.00000000       0.00000000       0.00000000
H        2.80615512       1.62013441      12.29121606        2       1.00000000       0.00000000       0.00000000       0.00000000       0.00000000       0.00000000       0.00000000
H        1.40307756       4.05033604      12.29121606        2       1.00000000       0.00000000       0.00000000       0.00000000       0.00000000       0.00000000       0.00000000
H        4.20923268       4.05033604      12.29121606        2       1.00000000       0.00000000       0.00000000       0.00000000       0.00000000       0.00000000       0.00000000
H        0.00000000       0.00000000      14.58243212        1       1.00000000       0.00000000       0.00000000       0.00000000       0.00000000       0.00000000       0.00000000
H        2.80615512       0.00000000      14.58243212        1       1.00000000       0.00000000       0.00000000       0.00000000       0.00000000       0.00000000       0.00000000
H        1.40307756       2.43020162      14.58243212        1       1.00000000       0.00000000       0.00000000       0.00000000       0.00000000       0.00000000       0.00000000
H        4.20923268       2.43020162      14.58243212        1       1.00000000       0.00000000       0.00000000       0.00000000       0.00000000       0.00000000       0.00000000
H        1.40307756       4.05033603       7.77136674        0       1.00000000       0.00000250      -0.00000221       0.00000052      -0.00000099      -0.00000301       0.00000668
H        4.20618888       4.05032312      16.81107347        0       1.00000000      -0.00000295       0.00000225       0.00000064      -0.00000093       0.00000272      -0.00000706
H        4.20923056       4.05033420       7.77136691        0       1.00000000      -0.00000084       0.00000381      -0.00000230       0.00000120       0.00000052       0.00000505
H        5.61230814       1.62012484      16.81106390        0       1.00000000      -0.00000082       0.00000047      -0.00000225      -0.00000042      -0.00000610       0.00000289
H        5.61231218       1.62013308       7.77136696        0       1.00000000      -0.00000184       0.00000105       0.00000019      -0.00000275       0.00000245      -0.00000007
H        1.40611765       4.05032348      16.81107277        0       1.00000000      -0.00000036      -0.00000566       0.00000117      -0.00000317       0.00000478      -0.00000323
H        2.80615607       1.62013386       7.77136773        0       1.00000000      -0.00000580      -0.00000294      -0.00000099       0.00000139      -0.00000053      -0.00000229
19
Lattice="5.612310241546866 0.0 0.0 0.0 4.860403243099165 0.0 0.0 0.0 24.582432123328676" Properties=species:S:1:pos:R:3:tags:I:1:masses:R:1:momenta:R:3:forces:R:3 KEmax=24.559391461069055 iter=188971 volume=670.5618179858607 ns_energy=-12.523476319993227 last_walked_iter_clone=188331 energy=-12.523476320060906 stress="0.02400491285631565 -2.3788654016056232e-08 3.047481881200885e-08 -2.3788654016056232e-08 0.024132735380547898 -1.8106003492018795e-08 3.047481881200885e-08 -1.8106003492018795e-08 0.012739537456992007" pbc="T T F"
H        1.40307756       0.81006721      10.00000000        3       1.00000000       0.00000000       0.00000000       0.00000000       0.00000000       0.00000000       0.00000000
H        4.20923268       0.81006721      10.00000000        3       1.00000000       0.00000000       0.00000000       0.00000000       0.00000000       0.00000000       0.00000000
H        0.00000000       3.24026883      10.00000000        3       1.00000000       0.00000000       0.00000000       0.00000000       0.00000000       0.00000000       0.00000000
H        2.80615512       3.24026883      10.00000000        3       1.00000000       0.00000000       0.00000000       0.00000000       0.00000000       0.00000000       0.00000000
H        0.00000000       1.62013441      12.29121606        2       1.00000000       0.00000000       0.00000000       0.00000000       0.00000000       0.00000000       0.00000000
H        2.80615512       1.62013441      12.29121606        2       1.00000000       0.00000000       0.00000000       0.00000000       0.00000000       0.00000000       0.00000000
H        1.40307756       4.05033604      12.29121606        2       1.00000000       0.00000000       0.00000000       0.00000000       0.00000000       0.00000000       0.00000000
H        4.20923268       4.05033604      12.29121606        2       1.00000000       0.00000000       0.00000000       0.00000000       0.00000000       0.00000000       0.00000000
H        0.00000000       0.00000000      14.58243212        1       1.00000000       0.00000000       0.00000000       0.00000000       0.00000000       0.00000000       0.00000000
H        2.80615512       0.00000000      14.58243212        1       1.00000000       0.00000000       0.00000000       0.00000000       0.00000000       0.00000000       0.00000000
H        1.40307756       2.43020162      14.58243212        1       1.00000000       0.00000000       0.00000000       0.00000000       0.00000000       0.00000000       0.00000000
H        4.20923268       2.43020162      14.58243212        1       1.00000000       0.00000000       0.00000000       0.00000000       0.00000000       0.00000000       0.00000000
H        1.40307710       4.05033900       7.77136499        0       1.00000000       0.00000176       0.00000026      -0.00000438      -0.00000099      -0.00000301       0.00000668
H        4.20619256       4.05033006      16.81107101        0       1.00000000       0.00000400       0.00000187       0.00000035      -0.00000093       0.00000272      -0.00000706
H        4.20923152       4.05033554       7.77136753        0       1.00000000       0.00000222      -0.00000311       0.00000171       0.00000120       0.00000052       0.00000505
H       -0.00000199       1.62012791      16.81106468        0       1.00000000       0.00000010      -0.00000303       0.00000039      -0.00000042      -0.00000610       0.00000289
H       -0.00000030       1.62013285       7.77136709        0       1.00000000       0.00000157       0.00000241       0.00000040      -0.00000275       0.00000245      -0.00000007
H        1.40612243       4.05032757      16.81107142        0       1.00000000      -0.00000154      -0.00000028       0.00000446      -0.00000317       0.00000478      -0.00000323
H        2.80615482       1.62013400       7.77136768        0       1.00000000       0.00000077       0.00000201      -0.00000058       0.00000139      -0.00000053      -0.00000229
19
Lattice="5.612310241546866 0.0 0.0 0.0 4.860403243099165 0.0 0.0 0.0 24.582432123328676" Properties=species:S:1:pos:R:3:tags:I:1:masses:R:1:momenta:R:3:forces:R:3 KEmax=24.559391461069055 iter=188971 volume=670.5618179858607 ns_energy=-12.52347631999201 last_walked_iter_clone=188780 energy=-12.523476320060906 stress="0.02400491285631565 -2.3788654016056232e-08 3.047481881200885e-08 -2.3788654016056232e-08 0.024132735380547898 -1.8106003492018795e-08 3.047481881200885e-08 -1.8106003492018795e-08 0.012739537456992007" pbc="T T F"
H        1.40307756       0.81006721      10.00000000        3       1.00000000       0.00000000       0.00000000       0.00000000       0.00000000       0.00000000       0.00000000
H        4.20923268       0.81006721      10.00000000        3       1.00000000       0.00000000       0.00000000       0.00000000       0.00000000       0.00000000       0.00000000
H        0.00000000       3.24026883      10.00000000        3       1.00000000       0.00000000       0.00000000       0.00000000       0.00000000       0.00000000       0.00000000
H        2.80615512       3.24026883      10.00000000        3       1.00000000       0.00000000       0.00000000       0.00000000       0.00000000       0.00000000       0.00000000
H        0.00000000       1.62013441      12.29121606        2       1.00000000       0.00000000       0.00000000       0.00000000       0.00000000       0.00000000       0.00000000
H        2.80615512       1.62013441      12.29121606        2       1.00000000       0.00000000       0.00000000       0.00000000       0.00000000       0.00000000       0.00000000
H        1.40307756       4.05033604      12.29121606        2       1.00000000       0.00000000       0.00000000       0.00000000       0.00000000       0.00000000       0.00000000
H        4.20923268       4.05033604      12.29121606        2       1.00000000       0.00000000       0.00000000       0.00000000       0.00000000       0.00000000       0.00000000
H        0.00000000       0.00000000      14.58243212        1       1.00000000       0.00000000       0.00000000       0.00000000       0.00000000       0.00000000       0.00000000
H        2.80615512       0.00000000      14.58243212        1       1.00000000       0.00000000       0.00000000       0.00000000       0.00000000       0.00000000       0.00000000
H        1.40307756       2.43020162      14.58243212        1       1.00000000       0.00000000       0.00000000       0.00000000       0.00000000       0.00000000       0.00000000
H        4.20923268       2.43020162      14.58243212        1       1.00000000       0.00000000       0.00000000       0.00000000       0.00000000       0.00000000       0.00000000
H        1.40307800       4.05033515       7.77136755        0       1.00000000      -0.00000120       0.00000178      -0.00000323      -0.00000099      -0.00000301       0.00000668
H        4.20619241       4.05032212      16.81107136        0       1.00000000       0.00000382      -0.00000161      -0.00000257      -0.00000093       0.00000272      -0.00000706
H        4.20923231       4.05033347       7.77136688        0       1.00000000      -0.00000066       0.00000595      -0.00000027       0.00000120       0.00000052       0.00000505
H        5.61231324       1.62012525      16.81106448        0       1.00000000      -0.00000052      -0.00000175      -0.00000110      -0.00000042      -0.00000610       0.00000289
H        5.61231223       1.62013304       7.77136616        0       1.00000000      -0.00000120       0.00000074       0.00000141      -0.00000275       0.00000245      -0.00000007
H        1.40612037       4.05032760      16.81107038        0       1.00000000      -0.00000138       0.00000125      -0.00000009      -0.00000317       0.00000478      -0.00000323
H        2.80615533       1.62013215       7.77136824        0       1.00000000       0.00000084      -0.00000690       0.00000016       0.00000139      -0.00000053      -0.00000229
19
Lattice="5.612310241546866 0.0 0.0 0.0 4.860403243099165 0.0 0.0 0.0 24.582432123328676" Properties=species:S:1:pos:R:3:tags:I:1:masses:R:1:momenta:R:3:forces:R:3 KEmax=24.559391461069055 iter=188971 volume=670.5618179858607 ns_energy=-12.52347631999442 last_walked_iter_clone=188821 energy=-12.523476320060906 stress="0.02400491285631565 -2.3788654016056232e-08 3.047481881200885e-08 -2.3788654016056232e-08 0.024132735380547898 -1.8106003492018795e-08 3.047481881200885e-08 -1.8106003492018795e-08 0.012739537456992007" pbc="T T F"
H        1.40307756       0.81006721      10.00000000        3       1.00000000       0.00000000       0.00000000       0.00000000       0.00000000       0.00000000       0.00000000
H        4.20923268       0.81006721      10.00000000        3       1.00000000       0.00000000       0.00000000       0.00000000       0.00000000       0.00000000       0.00000000
H        0.00000000       3.24026883      10.00000000        3       1.00000000       0.00000000       0.00000000       0.00000000       0.00000000       0.00000000       0.00000000
H        2.80615512       3.24026883      10.00000000        3       1.00000000       0.00000000       0.00000000       0.00000000       0.00000000       0.00000000       0.00000000
H        0.00000000       1.62013441      12.29121606        2       1.00000000       0.00000000       0.00000000       0.00000000       0.00000000       0.00000000       0.00000000
H        2.80615512       1.62013441      12.29121606        2       1.00000000       0.00000000       0.00000000       0.00000000       0.00000000       0.00000000       0.00000000
H        1.40307756       4.05033604      12.29121606        2       1.00000000       0.00000000       0.00000000       0.00000000       0.00000000       0.00000000       0.00000000
H        4.20923268       4.05033604      12.29121606        2       1.00000000       0.00000000       0.00000000       0.00000000       0.00000000       0.00000000       0.00000000