19
Lattice="5.612310241546866 0.0 0.0 0.0 4.860403243099165 0.0 0.0 0.0 24.582432123328676" Properties=species:S:1:pos:R:3:tags:I:1:masses:R:1:momenta:R:3:forces:R:3 KEmax=24.559391461069055 iter=239999 volume=670.5618179858607 ns_energy=-12.523476320099006 last_walked_iter_clone=239726 energy=-12.523475406361797 stress="0.02400366314884147 2.853882871902603e-09 5.337938681217505e-09 2.853882871902603e-09 0.024127960686772733 -2.773589159157633e-08 5.337938681217505e-09 -2.773589159157633e-08 0.012739552830619364" pbc="T T F"
H        1.40307756       0.81006721      10.00000000        3       1.00000000       0.00000000       0.00000000       0.00000000       0.00000000       0.00000000       0.00000000
H        4.20923268       0.81006721      10.00000000        3       1.00000000       0.00000000       0.00000000       0.00000000       0.00000000       0.00000000       0.00000000
H        0.00000000       3.24026883      10.00000000        3       1.00000000       0.00000000       0.00000000       0.00000000       0.00000000       0.00000000       0.00000000
H        2.80615512       3.24026883      10.00000000        3       1.00000000       0.00000000       0.00000000       0.00000000       0.00000000       0.00000000       0.00000000
H        0.00000000       1.62013441      12.29121606        2       1.00000000       0.00000000       0.00000000       0.00000000       0.00000000       0.00000000       0.00000000
H        2.80615512       1.62013441      12.29121606        2       1.00000000       0.00000000       0.00000000       0.00000000       0.00000000       0.00000000       0.00000000
H        1.40307756       4.05033604      12.29121606        2       1.00000000       0.00000000       0.00000000       0.00000000       0.00000000       0.00000000       0.00000000
H        4.20923268       4.05033604      12.29121606        2       1.00000000       0.00000000       0.00000000       0.00000000       0.00000000       0.00000000       0.00000000
H        0.00000000       0.00000000      14.58243212        1       1.00000000       0.00000000       0.00000000       0.00000000       0.00000000       0.00000000       0.00000000
H        2.80615512       0.00000000      14.58243212        1       1.00000000       0.00000000       0.00000000       0.00000000       0.00000000       0.00000000       0.00000000
H        1.40307756       2.43020162      14.58243212        1       1.00000000       0.00000000       0.00000000       0.00000000       0.00000000       0.00000000       0.00000000
H        4.20923268       2.43020162      14.58243212        1       1.00000000       0.00000000       0.00000000       0.00000000       0.00000000       0.00000000       0.00000000
H        1.40307707       4.05033552       7.77136778        0       1.00000000       0.00000016      -0.00000051       0.00000015       0.00026579       0.00093445       0.00000397
H        4.20618950       4.05032580      16.81107109        0       1.00000000       0.00000014       0.00000057       0.00000020      -0.00141517      -0.00012103      -0.00000758
H        4.20923241       4.05033582       7.77136711        0       1.00000000      -0.00000136       0.00000041      -0.00000050      -0.00026340       0.00090450      -0.00000276
H        5.61230929       1.62012612      16.81106448        0       1.00000000      -0.00000015      -0.00000019       0.00000001      -0.00000164       0.00024617      -0.00000173
H        5.61230962       1.62013401       7.77136692        0       1.00000000       0.00000090       0.00000143       0.00000078      -0.00096102      -0.00093590       0.00000067
H        1.40612014       4.05032569      16.81107146        0       1.00000000       0.00000068       0.00000100       0.00000070       0.00141540      -0.00012240      -0.00000984
H        2.80615395       1.62013430       7.77136707        0       1.00000000       0.00000049       0.00000123       0.00000104       0.00095782      -0.00090334      -0.00000248
19
Lattice="5.612310241546866 0.0 0.0 0.0 4.860403243099165 0.0 0.0 0.0 24.582432123328676" Properties=species:S:1:pos:R:3:tags:I:1:masses:R:1:momenta:R:3:forces:R:3 KEmax=24.559391461069055 iter=239999 volume=670.5618179858607 ns_energy=-12.523476320098927 last_walked_iter_clone=238140 energy=-12.523475406361797 stress="0.02400366314884147 2.853882871902603e-09 5.337938681217505e-09 2.853882871902603e-09 0.024127960686772733 -2.773589159157633e-08 5.337938681217505e-09 -2.773589159157633e-08 0.012739552830619364" pbc="T T F"
H        1.40307756       0.81006721      10.00000000        3       1.00000000       0.00000000       0.00000000       0.00000000       0.00000000       0.00000000       0.00000000
H        4.20923268       0.81006721      10.00000000        3       1.00000000       0.00000000       0.00000000       0.00000000       0.00000000       0.00000000       0.00000000
H        0.00000000       3.24026883      10.00000000        3       1.00000000       0.00000000       0.00000000       0.00000000       0.00000000       0.00000000       0.00000000
H        2.80615512       3.24026883      10.00000000        3       1.00000000       0.00000000       0.00000000       0.00000000       0.00000000       0.00000000       0.00000000
H        0.00000000       1.62013441      12.29121606        2       1.00000000       0.00000000       0.00000000       0.00000000       0.00000000       0.00000000       0.00000000
H        2.80615512       1.62013441      12.29121606        2       1.00000000       0.00000000       0.00000000       0.00000000       0.00000000       0.00000000       0.00000000
H        1.40307756       4.05033604      12.29121606        2       1.00000000       0.00000000       0.00000000       0.00000000       0.00000000       0.00000000       0.00000000
H        4.20923268       4.05033604      12.29121606        2       1.00000000       0.00000000       0.00000000       0.00000000       0.00000000       0.00000000       0.00000000
H        0.00000000       0.00000000      14.58243212        1       1.00000000       0.00000000       0.00000000       0.00000000       0.00000000       0.00000000       0.00000000
H        2.80615512       0.00000000      14.58243212        1       1.00000000       0.00000000       0.00000000       0.00000000       0.00000000       0.00000000       0.00000000
H        1.40307756       2.43020162      14.58243212        1       1.00000000       0.00000000       0.00000000       0.00000000       0.00000000       0.00000000       0.00000000
H        4.20923268       2.43020162      14.58243212        1       1.00000000       0.00000000       0.00000000       0.00000000       0.00000000       0.00000000       0.00000000
H        1.40307759       4.05033632       7.77136677        0       1.00000000       0.00000068       0.00000111       0.00000073       0.00026579       0.00093445       0.00000397
H        4.20618954       4.05032702      16.81107023        0       1.00000000       0.00000090      -0.00000069       0.00000057      -0.00141517      -0.00012103      -0.00000758
H        4.20923303       4.05033629       7.77136729        0       1.00000000      -0.00000009       0.00000018       0.00000041      -0.00026340       0.00090450      -0.00000276
H       -0.00000006       1.62012666      16.81106473        0       1.00000000       0.00000096       0.00000054      -0.00000006      -0.00000164       0.00024617      -0.00000173
H       -0.00000016       1.62013440       7.77136735        0       1.00000000       0.00000057      -0.00000081      -0.00000046      -0.00096102      -0.00093590       0.00000067
H        1.40612034       4.05032682      16.81107121        0       1.00000000      -0.00000201      -0.00000067      -0.00000034       0.00141540      -0.00012240      -0.00000984
H        2.80615554       1.62013470       7.77136754        0       1.00000000       0.00000068       0.00000068       0.00000071       0.00095782      -0.00090334      -0.00000248
19
Lattice="5.612310241546866 0.0 0.0 0.0 4.860403243099165 0.0 0.0 0.0 24.582432123328676" Properties=species:S:1:pos:R:3:tags:I:1:masses:R:1:momenta:R:3:forces:R:3 KEmax=24.559391461069055 iter=239999 volume=670.5618179858607 ns_energy=-12.523476320098892 last_walked_iter_clone=238941 energy=-12.523475406361797 stress="0.02400366314884147 2.853882871902603e-09 5.337938681217505e-09 2.853882871902603e-09 0.024127960686772733 -2.773589159157633e-08 5.337938681217505e-09 -2.773589159157633e-08 0.012739552830619364" pbc="T T F"
H        1.40307756       0.81006721      10.00000000        3       1.00000000       0.00000000       0.00000000       0.00000000       0.00000000       0.00000000       0.00000000
H        4.20923268       0.81006721      10.00000000        3       1.00000000       0.00000000       0.00000000       0.00000000       0.00000000       0.00000000       0.00000000
H        0.00000000       3.24026883      10.00000000        3       1.00000000       0.00000000       0.00000000       0.00000000       0.00000000       0.00000000       0.00000000
H        2.80615512       3.24026883      10.00000000        3       1.00000000       0.00000000       0.00000000       0.00000000       0.00000000       0.00000000       0.00000000
H        0.00000000       1.62013441      12.29121606        2       1.00000000       0.00000000       0.00000000       0.00000000       0.00000000       0.00000000       0.00000000
H        2.80615512       1.62013441      12.29121606        2       1.00000000       0.00000000       0.00000000       0.00000000       0.00000000       0.00000000       0.00000000
H        1.40307756       4.05033604      12.29121606        2       1.00000000       0.00000000       0.00000000       0.00000000       0.00000000       0.00000000       0.00000000
H        4.20923268       4.05033604      12.29121606        2       1.00000000       0.00000000       0.00000000       0.00000000       0.00000000       0.00000000       0.00000000
H        0.00000000       0.00000000      14.58243212        1       1.00000000       0.00000000       0.00000000       0.00000000       0.00000000       0.00000000       0.00000000
H        2.80615512       0.00000000      14.58243212        1       1.00000000       0.00000000       0.00000000       0.00000000       0.00000000       0.00000000       0.00000000
H        1.40307756       2.43020162      14.58243212        1       1.00000000       0.00000000       0.00000000       0.00000000       0.00000000       0.00000000       0.00000000
H        4.20923268       2.43020162      14.58243212        1       1.00000000       0.00000000       0.00000000       0.00000000       0.00000000       0.00000000       0.00000000
H        1.40307751       4.05033613       7.77136768        0       1.00000000       0.00000007      -0.00000116      -0.00000048       0.00026579       0.00093445       0.00000397
H        4.20618911       4.05032726      16.81107156        0       1.00000000       0.00000073       0.00000095       0.00000045      -0.00141517      -0.00012103      -0.00000758
H        4.20923243       4.05033623       7.77136736        0       1.00000000      -0.00000134      -0.00000023      -0.00000043      -0.00026340       0.00090450      -0.00000276
H       -0.00000036       1.62012702      16.81106562        0       1.00000000      -0.00000001       0.00000054       0.00000022      -0.00000164       0.00024617      -0.00000173
H       -0.00000009       1.62013466       7.77136697        0       1.00000000       0.00000071       0.00000044      -0.00000125      -0.00096102      -0.00093590       0.00000067
H        1.40611946       4.05032690      16.81107081        0       1.00000000      -0.00000002       0.00000043      -0.00000009       0.00141540      -0.00012240      -0.00000984
H        2.80615617       1.62013449       7.77136726        0       1.00000000       0.00000007       0.00000034       0.00000083       0.00095782      -0.00090334      -0.00000248
19
Lattice="5.612310241546866 0.0 0.0 0.0 4.860403243099165 0.0 0.0 0.0 24.582432123328676" Properties=species:S:1:pos:R:3:tags:I:1:masses:R:1:momenta:R:3:forces:R:3 KEmax=24.559391461069055 iter=239999 volume=670.5618179858607 ns_energy=-12.523476320098982 last_walked_iter_clone=238399 energy=-12.523475406361797 stress="0.02400366314884147 2.853882871902603e-09 5.337938681217505e-09 2.853882871902603e-09 0.024127960686772733 -2.773589159157633e-08 5.337938681217505e-09 -2.773589159157633e-08 0.012739552830619364" pbc="T T F"
H        1.40307756       0.81006721      10.00000000        3       1.00000000       0.00000000       0.00000000       0.00000000       0.00000000       0.00000000       0.00000000
H        4.20923268       0.81006721      10.00000000        3       1.00000000       0.00000000       0.00000000       0.00000000       0.00000000       0.00000000       0.00000000
H        0.00000000       3.24026883      10.00000000        3       1.00000000       0.00000000       0.00000000       0.00000000       0.00000000       0.00000000       0.00000000
H        2.80615512       3.24026883      10.00000000        3       1.00000000       0.00000000       0.00000000       0.00000000       0.00000000       0.00000000       0.00000000
H        0.00000000       1.62013441      12.29121606        2       1.00000000       0.00000000       0.00000000       0.00000000       0.00000000       0.00000000       0.00000000
H        2.80615512       1.62013441      12.29121606        2       1.00000000       0.00000000       0.00000000       0.00000000       0.00000000       0.00000000       0.00000000
H        1.40307756       4.05033604      12.29121606        2       1.00000000       0.00000000       0.00000000       0.00000000       0.00000000       0.00000000       0.00000000
H        4.20923268       4.05033604      12.29121606        2       1.00000000       0.00000000       0.00000000       0.00000000       0.00000000       0.00000000       0.00000000
H        0.00000000       0.00000000      14.58243212        1       1.00000000       0.00000000       0.00000000       0.00000000       0.00000000       0.00000000       0.00000000
H        2.80615512       0.00000000      14.58243212        1       1.00000000       0.00000000       0.00000000       0.00000000       0.00000000       0.00000000       0.00000000
H        1.40307756       2.43020162      14.58243212        1       1.00000000       0.00000000       0.00000000       0.00000000       0.00000000       0.00000000       0.00000000
H        4.20923268       2.43020162      14.58243212        1       1.00000000       0.00000000       0.00000000       0.00000000       0.00000000       0.00000000       0.00000000
H        1.40307794       4.05033579       7.77136748        0       1.00000000      -0.00000024      -0.00000099      -0.00000004       0.00026579       0.00093445       0.00000397
H        4.20618925       4.05032583      16.81107118        0       1.00000000      -0.00000004       0.00000002       0.00000087      -0.00141517      -0.00012103      -0.00000758
H        4.20923316       4.05033564       7.77136756        0       1.00000000      -0.00000068      -0.00000066      -0.00000051      -0.00026340       0.00090450      -0.00000276
H        0.00000143       1.62012613      16.81106470        0       1.00000000       0.00000026      -0.00000008      -0.00000081      -0.00000164       0.00024617      -0.00000173
H        5.61231116       1.62013404       7.77136735        0       1.00000000       0.00000005      -0.00000044      -0.00000144      -0.00096102      -0.00093590       0.00000067
H        1.40612020       4.05032631      16.81107117        0       1.00000000       0.00000090       0.00000082      -0.00000001       0.00141540      -0.00012240      -0.00000984
H        2.80615549       1.62013469       7.77136688        0       1.00000000       0.00000136      -0.00000045       0.00000002       0.00095782      -0.00090334      -0.00000248
19
Lattice="5.612310241546866 0.0 0.0 0.0 4.860403243099165 0.0 0.0 0.0 24.582432123328676" Properties=species:S:1:pos:R:3:tags:I:1:masses:R:1:momenta:R:3:forces:R:3 KEmax=24.559391461069055 iter=239999 volume=670.5618179858607 ns_energy=-12.523476320098883 last_walked_iter_clone=239728 energy=-12.523475406361797 stress="0.02400366314884147 2.853882871902603e-09 5.337938681217505e-09 2.853882871902603e-09 0.024127960686772733 -2.773589159157633e-08 5.337938681217505e-09 -2.773589159157633e-08 0.012739552830619364" pbc="T T F"
H        1.40307756       0.81006721      10.00000000        3       1.00000000       0.00000000       0.00000000       0.00000000       0.00000000       0.00000000       0.00000000
H        4.20923268       0.81006721      10.00000000        3       1.00000000       0.00000000       0.00000000       0.00000000       0.00000000       0.00000000       0.00000000
H        0.00000000       3.24026883      10.00000000        3       1.00000000       0.00000000       0.00000000       0.00000000       0.00000000       0.00000000       0.00000000
H        2.80615512       3.24026883      10.00000000        3       1.00000000       0.00000000       0.00000000       0.00000000       0.00000000       0.00000000       0.00000000
H        0.00000000       1.62013441      12.29121606        2       1.00000000       0.00000000       0.00000000       0.00000000       0.00000000       0.00000000       0.00000000
H        2.80615512       1.62013441      12.29121606        2       1.00000000       0.00000000       0.00000000       0.00000000       0.00000000       0.00000000       0.00000000
H        1.40307756       4.05033604      12.29121606        2       1.00000000       0.00000000       0.00000000       0.00000000       0.00000000       0.00000000       0.00000000
H        4.20923268       4.05033604      12.29121606        2       1.00000000       0.00000000       0.00000000       0.00000000       0.00000000       0.00000000       0.00000000
H        0.00000000       0.00000000      14.58243212        1       1.00000000       0.00000000       0.00000000       0.00000000       0.00000000       0.00000000       0.00000000
H        2.80615512       0.00000000      14.58243212        1       1.00000000       0.00000000       0.00000000       0.00000000       0.00000000       0.00000000       0.00000000
H        1.40307756       2.43020162      14.58243212        1       1.00000000       0.00000000       0.00000000       0.00000000       0.00000000       0.00000000       0.00000000
H        4.20923268       2.43020162      14.58243212        1       1.00000000       0.00000000       0.00000000       0.00000000       0.00000000       0.00000000       0.00000000
H        1.40307698       4.05033511       7.77136732        0       1.00000000      -0.00000112       0.00000041       0.00000058       0.00026579       0.00093445       0.00000397
H        4.20619003       4.05032525      16.81107118        0       1.00000000      -0.00000001      -0.00000014      -0.00000028      -0.00141517      -0.00012103      -0.00000758
H        4.20923262       4.05033499       7.77136642        0       1.00000000      -0.00000128      -0.00000037      -0.00000039      -0.00026340       0.00090450      -0.00000276
H        0.00000102       1.62012621      16.81106489        0       1.00000000      -0.00000091       0.00000027      -0.00000071      -0.00000164       0.00024617      -0.00000173
H        5.61231013       1.62013330       7.77136736        0       1.00000000       0.00000148       0.00000073       0.00000048      -0.00096102      -0.00093590       0.00000067
H        1.40612070       4.05032694      16.81107138        0       1.00000000       0.00000080       0.00000051      -0.00000005       0.00141540      -0.00012240      -0.00000984
H        2.80615506       1.62013390       7.77136711        0       1.00000000       0.00000037       0.00000025      -0.00000008       0.00095782      -0.00090334      -0.00000248
19
Lattice="5.612310241546866 0.0 0.0 0.0 4.860403243099165 0.0 0.0 0.0 24.582432123328676" Properties=species:S:1:pos:R:3:tags:I:1:masses:R:1:momenta:R:3:forces:R:3 KEmax=24.559391461069055 iter=239999 volume=670.5618179858607 ns_energy=-12.523476320098936 last_walked_iter_clone=239624 energy=-12.523475406361797 stress="0.02400366314884147 2.853882871902603e-09 5.337938681217505e-09 2.853882871902603e-09 0.024127960686772733 -2.773589159157633e-08 5.337938681217505e-09 -2.773589159157633e-08 0.012739552830619364" pbc="T T F"
H        1.40307756       0.81006721      10.00000000        3       1.00000000       0.00000000       0.00000000       0.00000000       0.00000000       0.00000000       0.00000000
H        4.20923268       0.81006721      10.00000000        3       1.00000000       0.00000000       0.00000000       0.00000000       0.00000000       0.00000000       0.00000000
H        0.00000000       3.24026883      10.00000000        3       1.00000000       0.00000000       0.00000000       0.00000000       0.00000000       0.00000000       0.00000000
H        2.80615512       3.24026883      10.00000000        3       1.00000000       0.00000000       0.00000000       0.00000000       0.00000000       0.00000000       0.00000000
H        0.00000000       1.62013441      12.29121606        2       1.00000000       0.00000000       0.00000000       0.00000000       0.00000000       0.00000000       0.00000000
H        2.80615512       1.62013441      12.29121606        2       1.00000000       0.00000000       0.00000000       0.00000000       0.00000000       0.00000000       0.00000000
H        1.40307756       4.05033604      12.29121606        2       1.00000000       0.00000000       0.00000000       0.00000000       0.00000000       0.00000000       0.00000000
H        4.20923268       4.05033604      12.29121606        2       1.00000000       0.00000000       0.00000000       0.00000000       0.00000000       0.00000000       0.00000000
H        0.00000000       0.00000000      14.58243212        1       1.00000000       0.00000000       0.00000000       0.00000000       0.00000000       0.00000000       0.00000000
H        2.80615512       0.00000000      14.58243212        1       1.00000000       0.00000000       0.00000000       0.00000000       0.00000000       0.00000000       0.00000000
H        1.40307756       2.43020162      14.58243212        1       1.00000000       0.00000000       0.00000000       0.00000000       0.00000000       0.00000000       0.00000000
H        4.20923268       2.43020162      14.58243212        1       1.00000000       0.00000000       0.00000000       0.00000000       0.00000000       0.00000000       0.00000000
H        1.40307803       4.05033524       7.77136707        0       1.00000000      -0.00000086      -0.00000056      -0.00000031       0.00026579       0.00093445       0.00000397
H        4.20618957       4.05032661      16.81107103        0       1.00000000       0.00000042       0.00000016      -0.00000000      -0.00141517      -0.00012103      -0.00000758
H        4.20923283       4.05033512       7.77136711        0       1.00000000       0.00000051      -0.00000061      -0.00000044      -0.00026340       0.00090450      -0.00000276
H        0.00000074       1.62012684      16.81106475        0       1.00000000      -0.00000152       0.00000073      -0.00000110      -0.00000164       0.00024617      -0.00000173
H       -0.00000009       1.62013388       7.77136712        0       1.00000000      -0.00000044      -0.00000011      -0.00000059      -0.00096102      -0.00093590       0.00000067
H        1.40612012       4.05032710      16.81107060        0       1.00000000       0.00000060       0.00000115       0.00000001       0.00141540      -0.00012240      -0.00000984
H        2.80615583       1.62013311       7.77136735        0       1.00000000       0.00000023       0.00000076       0.00000117       0.00095782      -0.00090334      -0.00000248
19
Lattice="5.612310241546866 0.0 0.0 0.0 4.860403243099165 0.0 0.0 0.0 24.582432123328676" Properties=species:S:1:pos:R:3:tags:I:1:masses:R:1:momenta:R:3:forces:R:3 KEmax=24.559391461069055 iter=239999 volume=670.5618179858607 ns_energy=-12.523476320098833 last_walked_iter_clone=235868 energy=-12.523475406361797 stress="0.02400366314884147 2.853882871902603e-09 5.337938681217505e-09 2.853882871902603e-09 0.024127960686772733 -2.773589159157633e-08 5.337938681217505e-09 -2.773589159157633e-08 0.012739552830619364" pbc="T T F"
H        1.40307756       0.81006721      10.00000000        3       1.00000000       0.00000000       0.00000000       0.00000000       0.00000000       0.00000000       0.00000000
H        4.20923268       0.81006721      10.00000000        3       1.00000000       0.00000000       0.00000000       0.00000000       0.00000000       0.00000000       0.00000000
H        0.00000000       3.24026883      10.00000000        3       1.00000000       0.00000000       0.00000000       0.00000000       0.00000000       0.00000000       0.00000000
H        2.80615512       3.24026883      10.00000000        3       1.00000000       0.00000000       0.00000000       0.00000000       0.00000000       0.00000000       0.00000000
H        0.00000000       1.62013441      12.29121606        2       1.00000000       0.00000000       0.00000000       0.00000000       0.00000000       0.00000000       0.00000000
H        2.80615512       1.62013441      12.29121606        2       1.00000000       0.00000000       0.00000000       0.00000000       0.00000000       0.00000000       0.00000000
H        1.40307756       4.05033604      12.29121606        2       1.00000000       0.00000000       0.00000000       0.00000000       0.00000000       0.00000000       0.00000000
H        4.20923268       4.05033604      12.29121606        2       1.00000000       0.00000000       0.00000000       0.00000000       0.00000000       0.00000000       0.00000000
H        0.00000000       0.00000000      14.58243212        1       1.00000000       0.00000000       0.00000000       0.00000000       0.00000000       0.00000000       0.00000000
H        2.80615512       0.00000000      14.58243212        1       1.00000000       0.00000000       0.00000000       0.00000000       0.00000000       0.00000000       0.00000000
H        1.40307756       2.43020162      14.58243212        1       1.00000000       0.00000000       0.00000000       0.00000000       0.00000000       0.00000000       0.00000000
H        4.20923268       2.43020162      14.58243212        1       1.00000000       0.00000000       0.00000000       0.00000000       0.00000000       0.00000000       0.00000000
H        1.40307699       4.05033606       7.77136703        0       1.00000000       0.00000006      -0.00000019       0.00000082       0.00026579       0.00093445       0.00000397
H        4.20618963       4.05032601      16.81107126        0       1.00000000       0.00000013       0.00000074      -0.00000047      -0.00141517      -0.00012103      -0.00000758
H        4.20923236       4.05033540       7.77136663        0       1.00000000      -0.00000013      -0.00000081       0.00000042      -0.00026340       0.00090450      -0.00000276
H       -0.00000053       1.62012577      16.81106534        0       1.00000000      -0.00000142       0.00000091      -0.00000015      -0.00000164       0.00024617      -0.00000173
H       -0.00000041       1.62013348       7.77136727        0       1.00000000      -0.00000032       0.00000017      -0.00000155      -0.00096102      -0.00093590       0.00000067
H        1.40612003       4.05032496      16.81107076        0       1.00000000       0.00000067      -0.00000033      -0.00000017       0.00141540      -0.00012240      -0.00000984
H        2.80615449       1.62013450       7.77136699        0       1.00000000      -0.00000082       0.00000104      -0.00000094       0.00095782      -0.00090334      -0.00000248
19
Lattice="5.612310241546866 0.0 0.0 0.0 4.860403243099165 0.0 0.0 0.0 24.582432123328676" Properties=species:S:1:pos:R:3:tags:I:1:masses:R:1:momenta:R:3:forces:R:3 KEmax=24.559391461069055 iter=239999 volume=670.5618179858607 ns_energy=-12.523476320098963 last_walked_iter_clone=238370 energy=-12.523475406361797 stress="0.02400366314884147 2.853882871902603e-09 5.337938681217505e-09 2.853882871902603e-09 0.024127960686772733 -2.773589159157633e-08 5.337938681217505e-09 -2.773589159157633e-08 0.012739552830619364" pbc="T T F"
H        1.40307756       0.81006721      10.00000000        3       1.00000000       0.00000000       0.00000000       0.00000000       0.00000000       0.00000000       0.00000000
H        4.20923268       0.81006721      10.00000000        3       1.00000000       0.00000000       0.00000000       0.00000000       0.00000000       0.00000000       0.00000000
H        0.00000000       3.24026883      10.00000000        3       1.00000000       0.00000000       0.00000000       0.00000000       0.00000000       0.00000000       0.00000000
H        2.80615512       3.24026883      10.00000000        3       1.00000000       0.00000000       0.00000000       0.00000000       0.00000000       0.00000000       0.00000000
H        0.00000000       1.62013441      12.29121606        2       1.00000000       0.00000000       0.00000000       0.00000000       0.00000000       0.00000000       0.00000000
H        2.80615512       1.62013441      12.29121606        2       1.00000000       0.00000000       0.00000000       0.00000000       0.00000000       0.00000000       0.00000000
H        1.40307756       4.05033604      12.29121606        2       1.00000000       0.00000000       0.00000000       0.00000000       0.00000000       0.00000000       0.00000000
H        4.20923268       4.05033604      12.29121606        2       1.00000000       0.00000000       0.00000000       0.00000000       0.00000000       0.00000000       0.00000000