19
Lattice="5.612310241546866 0.0 0.0 0.0 4.860403243099165 0.0 0.0 0.0 24.582432123328676" Properties=species:S:1:pos:R:3:tags:I:1:masses:R:1:momenta:R:3:forces:R:3 KEmax=24.559391461069055 iter=222236 volume=670.5618179858607 ns_energy=-12.52347632009454 last_walked_iter_clone=222103 energy=-12.523476320100542 stress="0.024004873686551048 -3.852370182261321e-09 -2.05148097937542e-09 -3.852370182261321e-09 0.024132708134406513 -1.8672816756188886e-09 -2.05148097937542e-09 -1.8672816756188886e-09 0.012739412164404128" pbc="T T F"
H        1.40307756       0.81006721      10.00000000        3       1.00000000       0.00000000       0.00000000       0.00000000       0.00000000       0.00000000       0.00000000
H        4.20923268       0.81006721      10.00000000        3       1.00000000       0.00000000       0.00000000       0.00000000       0.00000000       0.00000000       0.00000000
H        0.00000000       3.24026883      10.00000000        3       1.00000000       0.00000000       0.00000000       0.00000000       0.00000000       0.00000000       0.00000000
H        2.80615512       3.24026883      10.00000000        3       1.00000000       0.00000000       0.00000000       0.00000000       0.00000000       0.00000000       0.00000000
H        0.00000000       1.62013441      12.29121606        2       1.00000000       0.00000000       0.00000000       0.00000000       0.00000000       0.00000000       0.00000000
H        2.80615512       1.62013441      12.29121606        2       1.00000000       0.00000000       0.00000000       0.00000000       0.00000000       0.00000000       0.00000000
H        1.40307756       4.05033604      12.29121606        2       1.00000000       0.00000000       0.00000000       0.00000000       0.00000000       0.00000000       0.00000000
H        4.20923268       4.05033604      12.29121606        2       1.00000000       0.00000000       0.00000000       0.00000000       0.00000000       0.00000000       0.00000000
H        0.00000000       0.00000000      14.58243212        1       1.00000000       0.00000000       0.00000000       0.00000000       0.00000000       0.00000000       0.00000000
H        2.80615512       0.00000000      14.58243212        1       1.00000000       0.00000000       0.00000000       0.00000000       0.00000000       0.00000000       0.00000000
H        1.40307756       2.43020162      14.58243212        1       1.00000000       0.00000000       0.00000000       0.00000000       0.00000000       0.00000000       0.00000000
H        4.20923268       2.43020162      14.58243212        1       1.00000000       0.00000000       0.00000000       0.00000000       0.00000000       0.00000000       0.00000000
H        1.40307773       4.05033509       7.77136811        0       1.00000000       0.00000016      -0.00000021       0.00000064      -0.00000035       0.00000354       0.00000030
H        4.20618906       4.05032526      16.81107135        0       1.00000000      -0.00000004      -0.00000000       0.00000079      -0.00000045      -0.00000166       0.00000107
H        4.20923342       4.05033572       7.77136786        0       1.00000000      -0.00000067      -0.00000029       0.00000158       0.00000104      -0.00000130       0.00000013
H       -0.00000053       1.62012435      16.81106483        0       1.00000000      -0.00000005       0.00000057       0.00000110       0.00000144       0.00000306       0.00000056
H        0.00000051       1.62013414       7.77136739        0       1.00000000      -0.00000052      -0.00000108      -0.00000030      -0.00000079       0.00000023       0.00000032
H        1.40612032       4.05032406      16.81107158        0       1.00000000      -0.00000078       0.00000039      -0.00000025       0.00000064      -0.00000047      -0.00000160
H        2.80615577       1.62013475       7.77136684        0       1.00000000      -0.00000015       0.00000008       0.00000062       0.00000150      -0.00000171       0.00000189
19
Lattice="5.612310241546866 0.0 0.0 0.0 4.860403243099165 0.0 0.0 0.0 24.582432123328676" Properties=species:S:1:pos:R:3:tags:I:1:masses:R:1:momenta:R:3:forces:R:3 KEmax=24.559391461069055 iter=222236 volume=670.5618179858607 ns_energy=-12.523476320094764 last_walked_iter_clone=222135 energy=-12.523476320100542 stress="0.024004873686551048 -3.852370182261321e-09 -2.05148097937542e-09 -3.852370182261321e-09 0.024132708134406513 -1.8672816756188886e-09 -2.05148097937542e-09 -1.8672816756188886e-09 0.012739412164404128" pbc="T T F"
H        1.40307756       0.81006721      10.00000000        3       1.00000000       0.00000000       0.00000000       0.00000000       0.00000000       0.00000000       0.00000000
H        4.20923268       0.81006721      10.00000000        3       1.00000000       0.00000000       0.00000000       0.00000000       0.00000000       0.00000000       0.00000000
H        0.00000000       3.24026883      10.00000000        3       1.00000000       0.00000000       0.00000000       0.00000000       0.00000000       0.00000000       0.00000000
H        2.80615512       3.24026883      10.00000000        3       1.00000000       0.00000000       0.00000000       0.00000000       0.00000000       0.00000000       0.00000000
H        0.00000000       1.62013441      12.29121606        2       1.00000000       0.00000000       0.00000000       0.00000000       0.00000000       0.00000000       0.00000000
H        2.80615512       1.62013441      12.29121606        2       1.00000000       0.00000000       0.00000000       0.00000000       0.00000000       0.00000000       0.00000000
H        1.40307756       4.05033604      12.29121606        2       1.00000000       0.00000000       0.00000000       0.00000000       0.00000000       0.00000000       0.00000000
H        4.20923268       4.05033604      12.29121606        2       1.00000000       0.00000000       0.00000000       0.00000000       0.00000000       0.00000000       0.00000000
H        0.00000000       0.00000000      14.58243212        1       1.00000000       0.00000000       0.00000000       0.00000000       0.00000000       0.00000000       0.00000000
H        2.80615512       0.00000000      14.58243212        1       1.00000000       0.00000000       0.00000000       0.00000000       0.00000000       0.00000000       0.00000000
H        1.40307756       2.43020162      14.58243212        1       1.00000000       0.00000000       0.00000000       0.00000000       0.00000000       0.00000000       0.00000000
H        4.20923268       2.43020162      14.58243212        1       1.00000000       0.00000000       0.00000000       0.00000000       0.00000000       0.00000000       0.00000000
H        1.40307798       4.05033700       7.77136762        0       1.00000000      -0.00000200       0.00000036      -0.00000015      -0.00000035       0.00000354       0.00000030
H        4.20618932       4.05032638      16.81107163        0       1.00000000      -0.00000033       0.00000012       0.00000115      -0.00000045      -0.00000166       0.00000107
H        4.20923228       4.05033639       7.77136746        0       1.00000000       0.00000054       0.00000079       0.00000144       0.00000104      -0.00000130       0.00000013
H        5.61230987       1.62012632      16.81106520        0       1.00000000       0.00000033       0.00000033       0.00000001       0.00000144       0.00000306       0.00000056
H        0.00000047       1.62013523       7.77136734        0       1.00000000       0.00000023      -0.00000086       0.00000180      -0.00000079       0.00000023       0.00000032
H        1.40611989       4.05032675      16.81107159        0       1.00000000       0.00000077      -0.00000086       0.00000018       0.00000064      -0.00000047      -0.00000160
H        2.80615550       1.62013390       7.77136698        0       1.00000000      -0.00000068       0.00000093       0.00000060       0.00000150      -0.00000171       0.00000189
19
Lattice="5.612310241546866 0.0 0.0 0.0 4.860403243099165 0.0 0.0 0.0 24.582432123328676" Properties=species:S:1:pos:R:3:tags:I:1:masses:R:1:momenta:R:3:forces:R:3 KEmax=24.559391461069055 iter=222236 volume=670.5618179858607 ns_energy=-12.523476320094748 last_walked_iter_clone=221857 energy=-12.523476320100542 stress="0.024004873686551048 -3.852370182261321e-09 -2.05148097937542e-09 -3.852370182261321e-09 0.024132708134406513 -1.8672816756188886e-09 -2.05148097937542e-09 -1.8672816756188886e-09 0.012739412164404128" pbc="T T F"
H        1.40307756       0.81006721      10.00000000        3       1.00000000       0.00000000       0.00000000       0.00000000       0.00000000       0.00000000       0.00000000
H        4.20923268       0.81006721      10.00000000        3       1.00000000       0.00000000       0.00000000       0.00000000       0.00000000       0.00000000       0.00000000
H        0.00000000       3.24026883      10.00000000        3       1.00000000       0.00000000       0.00000000       0.00000000       0.00000000       0.00000000       0.00000000
H        2.80615512       3.24026883      10.00000000        3       1.00000000       0.00000000       0.00000000       0.00000000       0.00000000       0.00000000       0.00000000
H        0.00000000       1.62013441      12.29121606        2       1.00000000       0.00000000       0.00000000       0.00000000       0.00000000       0.00000000       0.00000000
H        2.80615512       1.62013441      12.29121606        2       1.00000000       0.00000000       0.00000000       0.00000000       0.00000000       0.00000000       0.00000000
H        1.40307756       4.05033604      12.29121606        2       1.00000000       0.00000000       0.00000000       0.00000000       0.00000000       0.00000000       0.00000000
H        4.20923268       4.05033604      12.29121606        2       1.00000000       0.00000000       0.00000000       0.00000000       0.00000000       0.00000000       0.00000000
H        0.00000000       0.00000000      14.58243212        1       1.00000000       0.00000000       0.00000000       0.00000000       0.00000000       0.00000000       0.00000000
H        2.80615512       0.00000000      14.58243212        1       1.00000000       0.00000000       0.00000000       0.00000000       0.00000000       0.00000000       0.00000000
H        1.40307756       2.43020162      14.58243212        1       1.00000000       0.00000000       0.00000000       0.00000000       0.00000000       0.00000000       0.00000000
H        4.20923268       2.43020162      14.58243212        1       1.00000000       0.00000000       0.00000000       0.00000000       0.00000000       0.00000000       0.00000000
H        1.40307702       4.05033659       7.77136718        0       1.00000000       0.00000076      -0.00000096      -0.00000109      -0.00000035       0.00000354       0.00000030
H        4.20619036       4.05032737      16.81107101        0       1.00000000       0.00000011       0.00000024      -0.00000012      -0.00000045      -0.00000166       0.00000107
H        4.20923204       4.05033684       7.77136784        0       1.00000000      -0.00000010       0.00000053       0.00000056       0.00000104      -0.00000130       0.00000013
H        0.00000037       1.62012698      16.81106507        0       1.00000000       0.00000081      -0.00000150       0.00000047       0.00000144       0.00000306       0.00000056
H       -0.00000132       1.62013418       7.77136771        0       1.00000000      -0.00000040       0.00000052       0.00000129      -0.00000079       0.00000023       0.00000032
H        1.40612104       4.05032747      16.81107099        0       1.00000000       0.00000024      -0.00000014       0.00000148       0.00000064      -0.00000047      -0.00000160
H        2.80615386       1.62013447       7.77136698        0       1.00000000       0.00000047      -0.00000174      -0.00000065       0.00000150      -0.00000171       0.00000189
19
Lattice="5.612310241546866 0.0 0.0 0.0 4.860403243099165 0.0 0.0 0.0 24.582432123328676" Properties=species:S:1:pos:R:3:tags:I:1:masses:R:1:momenta:R:3:forces:R:3 KEmax=24.559391461069055 iter=222236 volume=670.5618179858607 ns_energy=-12.5234763200949 last_walked_iter_clone=221622 energy=-12.523476320100542 stress="0.024004873686551048 -3.852370182261321e-09 -2.05148097937542e-09 -3.852370182261321e-09 0.024132708134406513 -1.8672816756188886e-09 -2.05148097937542e-09 -1.8672816756188886e-09 0.012739412164404128" pbc="T T F"
H        1.40307756       0.81006721      10.00000000        3       1.00000000       0.00000000       0.00000000       0.00000000       0.00000000       0.00000000       0.00000000
H        4.20923268       0.81006721      10.00000000        3       1.00000000       0.00000000       0.00000000       0.00000000       0.00000000       0.00000000       0.00000000
H        0.00000000       3.24026883      10.00000000        3       1.00000000       0.00000000       0.00000000       0.00000000       0.00000000       0.00000000       0.00000000
H        2.80615512       3.24026883      10.00000000        3       1.00000000       0.00000000       0.00000000       0.00000000       0.00000000       0.00000000       0.00000000
H        0.00000000       1.62013441      12.29121606        2       1.00000000       0.00000000       0.00000000       0.00000000       0.00000000       0.00000000       0.00000000
H        2.80615512       1.62013441      12.29121606        2       1.00000000       0.00000000       0.00000000       0.00000000       0.00000000       0.00000000       0.00000000
H        1.40307756       4.05033604      12.29121606        2       1.00000000       0.00000000       0.00000000       0.00000000       0.00000000       0.00000000       0.00000000
H        4.20923268       4.05033604      12.29121606        2       1.00000000       0.00000000       0.00000000       0.00000000       0.00000000       0.00000000       0.00000000
H        0.00000000       0.00000000      14.58243212        1       1.00000000       0.00000000       0.00000000       0.00000000       0.00000000       0.00000000       0.00000000
H        2.80615512       0.00000000      14.58243212        1       1.00000000       0.00000000       0.00000000       0.00000000       0.00000000       0.00000000       0.00000000
H        1.40307756       2.43020162      14.58243212        1       1.00000000       0.00000000       0.00000000       0.00000000       0.00000000       0.00000000       0.00000000
H        4.20923268       2.43020162      14.58243212        1       1.00000000       0.00000000       0.00000000       0.00000000       0.00000000       0.00000000       0.00000000
H        1.40307871       4.05033522       7.77136705        0       1.00000000      -0.00000023       0.00000205      -0.00000054      -0.00000035       0.00000354       0.00000030
H        4.20618908       4.05032573      16.81107137        0       1.00000000      -0.00000062       0.00000093       0.00000006      -0.00000045      -0.00000166       0.00000107
H        4.20923365       4.05033528       7.77136738        0       1.00000000       0.00000007      -0.00000030      -0.00000004       0.00000104      -0.00000130       0.00000013
H       -0.00000059       1.62012530      16.81106549        0       1.00000000      -0.00000071       0.00000045       0.00000027       0.00000144       0.00000306       0.00000056
H        0.00000125       1.62013365       7.77136775        0       1.00000000      -0.00000003       0.00000051      -0.00000106      -0.00000079       0.00000023       0.00000032
H        1.40612040       4.05032512      16.81107102        0       1.00000000       0.00000075       0.00000197       0.00000121       0.00000064      -0.00000047      -0.00000160
H        2.80615584       1.62013378       7.77136645        0       1.00000000       0.00000043       0.00000031       0.00000089       0.00000150      -0.00000171       0.00000189
19
Lattice="5.612310241546866 0.0 0.0 0.0 4.860403243099165 0.0 0.0 0.0 24.582432123328676" Properties=species:S:1:pos:R:3:tags:I:1:masses:R:1:momenta:R:3:forces:R:3 KEmax=24.559391461069055 iter=222236 volume=670.5618179858607 ns_energy=-12.523476320094744 last_walked_iter_clone=221981 energy=-12.523476320100542 stress="0.024004873686551048 -3.852370182261321e-09 -2.05148097937542e-09 -3.852370182261321e-09 0.024132708134406513 -1.8672816756188886e-09 -2.05148097937542e-09 -1.8672816756188886e-09 0.012739412164404128" pbc="T T F"
H        1.40307756       0.81006721      10.00000000        3       1.00000000       0.00000000       0.00000000       0.00000000       0.00000000       0.00000000       0.00000000
H        4.20923268       0.81006721      10.00000000        3       1.00000000       0.00000000       0.00000000       0.00000000       0.00000000       0.00000000       0.00000000
H        0.00000000       3.24026883      10.00000000        3       1.00000000       0.00000000       0.00000000       0.00000000       0.00000000       0.00000000       0.00000000
H        2.80615512       3.24026883      10.00000000        3       1.00000000       0.00000000       0.00000000       0.00000000       0.00000000       0.00000000       0.00000000
H        0.00000000       1.62013441      12.29121606        2       1.00000000       0.00000000       0.00000000       0.00000000       0.00000000       0.00000000       0.00000000
H        2.80615512       1.62013441      12.29121606        2       1.00000000       0.00000000       0.00000000       0.00000000       0.00000000       0.00000000       0.00000000
H        1.40307756       4.05033604      12.29121606        2       1.00000000       0.00000000       0.00000000       0.00000000       0.00000000       0.00000000       0.00000000
H        4.20923268       4.05033604      12.29121606        2       1.00000000       0.00000000       0.00000000       0.00000000       0.00000000       0.00000000       0.00000000
H        0.00000000       0.00000000      14.58243212        1       1.00000000       0.00000000       0.00000000       0.00000000       0.00000000       0.00000000       0.00000000
H        2.80615512       0.00000000      14.58243212        1       1.00000000       0.00000000       0.00000000       0.00000000       0.00000000       0.00000000       0.00000000
H        1.40307756       2.43020162      14.58243212        1       1.00000000       0.00000000       0.00000000       0.00000000       0.00000000       0.00000000       0.00000000
H        4.20923268       2.43020162      14.58243212        1       1.00000000       0.00000000       0.00000000       0.00000000       0.00000000       0.00000000       0.00000000
H        1.40307721       4.05033479       7.77136722        0       1.00000000       0.00000049      -0.00000046      -0.00000003      -0.00000035       0.00000354       0.00000030
H        4.20618909       4.05032660      16.81107181        0       1.00000000       0.00000106      -0.00000074       0.00000183      -0.00000045      -0.00000166       0.00000107
H        4.20923272       4.05033524       7.77136754        0       1.00000000      -0.00000017       0.00000065       0.00000107       0.00000104      -0.00000130       0.00000013
H        0.00000005       1.62012758      16.81106521        0       1.00000000      -0.00000059      -0.00000002      -0.00000027       0.00000144       0.00000306       0.00000056
H        5.61230994       1.62013354       7.77136757        0       1.00000000       0.00000015       0.00000002      -0.00000034      -0.00000079       0.00000023       0.00000032
H        1.40612045       4.05032758      16.81107062        0       1.00000000      -0.00000207       0.00000070       0.00000038       0.00000064      -0.00000047      -0.00000160
H        2.80615500       1.62013367       7.77136656        0       1.00000000       0.00000172      -0.00000012      -0.00000006       0.00000150      -0.00000171       0.00000189
19
Lattice="5.612310241546866 0.0 0.0 0.0 4.860403243099165 0.0 0.0 0.0 24.582432123328676" Properties=species:S:1:pos:R:3:tags:I:1:masses:R:1:momenta:R:3:forces:R:3 KEmax=24.559391461069055 iter=222236 volume=670.5618179858607 ns_energy=-12.52347632009514 last_walked_iter_clone=221337 energy=-12.523476320100542 stress="0.024004873686551048 -3.852370182261321e-09 -2.05148097937542e-09 -3.852370182261321e-09 0.024132708134406513 -1.8672816756188886e-09 -2.05148097937542e-09 -1.8672816756188886e-09 0.012739412164404128" pbc="T T F"
H        1.40307756       0.81006721      10.00000000        3       1.00000000       0.00000000       0.00000000       0.00000000       0.00000000       0.00000000       0.00000000
H        4.20923268       0.81006721      10.00000000        3       1.00000000       0.00000000       0.00000000       0.00000000       0.00000000       0.00000000       0.00000000
H        0.00000000       3.24026883      10.00000000        3       1.00000000       0.00000000       0.00000000       0.00000000       0.00000000       0.00000000       0.00000000
H        2.80615512       3.24026883      10.00000000        3       1.00000000       0.00000000       0.00000000       0.00000000       0.00000000       0.00000000       0.00000000
H        0.00000000       1.62013441      12.29121606        2       1.00000000       0.00000000       0.00000000       0.00000000       0.00000000       0.00000000       0.00000000
H        2.80615512       1.62013441      12.29121606        2       1.00000000       0.00000000       0.00000000       0.00000000       0.00000000       0.00000000       0.00000000
H        1.40307756       4.05033604      12.29121606        2       1.00000000       0.00000000       0.00000000       0.00000000       0.00000000       0.00000000       0.00000000
H        4.20923268       4.05033604      12.29121606        2       1.00000000       0.00000000       0.00000000       0.00000000       0.00000000       0.00000000       0.00000000
H        0.00000000       0.00000000      14.58243212        1       1.00000000       0.00000000       0.00000000       0.00000000       0.00000000       0.00000000       0.00000000
H        2.80615512       0.00000000      14.58243212        1       1.00000000       0.00000000       0.00000000       0.00000000       0.00000000       0.00000000       0.00000000
H        1.40307756       2.43020162      14.58243212        1       1.00000000       0.00000000       0.00000000       0.00000000       0.00000000       0.00000000       0.00000000
H        4.20923268       2.43020162      14.58243212        1       1.00000000       0.00000000       0.00000000       0.00000000       0.00000000       0.00000000       0.00000000
H        1.40307684       4.05033608       7.77136711        0       1.00000000       0.00000042      -0.00000027      -0.00000050      -0.00000035       0.00000354       0.00000030
H        4.20618888       4.05032613      16.81107146        0       1.00000000       0.00000046      -0.00000067       0.00000017      -0.00000045      -0.00000166       0.00000107
H        4.20923247       4.05033585       7.77136753        0       1.00000000      -0.00000030      -0.00000041       0.00000065       0.00000104      -0.00000130       0.00000013
H        5.61230924       1.62012668      16.81106504        0       1.00000000       0.00000005       0.00000087       0.00000039       0.00000144       0.00000306       0.00000056
H       -0.00000049       1.62013433       7.77136757        0       1.00000000      -0.00000029      -0.00000131       0.00000120      -0.00000079       0.00000023       0.00000032
H        1.40612014       4.05032693      16.81107051        0       1.00000000       0.00000049      -0.00000076       0.00000119       0.00000064      -0.00000047      -0.00000160
H        2.80615430       1.62013506       7.77136718        0       1.00000000      -0.00000195       0.00000197      -0.00000125       0.00000150      -0.00000171       0.00000189
19
Lattice="5.612310241546866 0.0 0.0 0.0 4.860403243099165 0.0 0.0 0.0 24.582432123328676" Properties=species:S:1:pos:R:3:tags:I:1:masses:R:1:momenta:R:3:forces:R:3 KEmax=24.559391461069055 iter=222236 volume=670.5618179858607 ns_energy=-12.52347632009458 last_walked_iter_clone=222128 energy=-12.523476320100542 stress="0.024004873686551048 -3.852370182261321e-09 -2.05148097937542e-09 -3.852370182261321e-09 0.024132708134406513 -1.8672816756188886e-09 -2.05148097937542e-09 -1.8672816756188886e-09 0.012739412164404128" pbc="T T F"
H        1.40307756       0.81006721      10.00000000        3       1.00000000       0.00000000       0.00000000       0.00000000       0.00000000       0.00000000       0.00000000
H        4.20923268       0.81006721      10.00000000        3       1.00000000       0.00000000       0.00000000       0.00000000       0.00000000       0.00000000       0.00000000
H        0.00000000       3.24026883      10.00000000        3       1.00000000       0.00000000       0.00000000       0.00000000       0.00000000       0.00000000       0.00000000
H        2.80615512       3.24026883      10.00000000        3       1.00000000       0.00000000       0.00000000       0.00000000       0.00000000       0.00000000       0.00000000
H        0.00000000       1.62013441      12.29121606        2       1.00000000       0.00000000       0.00000000       0.00000000       0.00000000       0.00000000       0.00000000
H        2.80615512       1.62013441      12.29121606        2       1.00000000       0.00000000       0.00000000       0.00000000       0.00000000       0.00000000       0.00000000
H        1.40307756       4.05033604      12.29121606        2       1.00000000       0.00000000       0.00000000       0.00000000       0.00000000       0.00000000       0.00000000
H        4.20923268       4.05033604      12.29121606        2       1.00000000       0.00000000       0.00000000       0.00000000       0.00000000       0.00000000       0.00000000
H        0.00000000       0.00000000      14.58243212        1       1.00000000       0.00000000       0.00000000       0.00000000       0.00000000       0.00000000       0.00000000
H        2.80615512       0.00000000      14.58243212        1       1.00000000       0.00000000       0.00000000       0.00000000       0.00000000       0.00000000       0.00000000
H        1.40307756       2.43020162      14.58243212        1       1.00000000       0.00000000       0.00000000       0.00000000       0.00000000       0.00000000       0.00000000
H        4.20923268       2.43020162      14.58243212        1       1.00000000       0.00000000       0.00000000       0.00000000       0.00000000       0.00000000       0.00000000
H        1.40307810       4.05033653       7.77136793        0       1.00000000      -0.00000052      -0.00000002      -0.00000130      -0.00000035       0.00000354       0.00000030
H        4.20618996       4.05032574      16.81107145        0       1.00000000      -0.00000070       0.00000040       0.00000009      -0.00000045      -0.00000166       0.00000107
H        4.20923263       4.05033608       7.77136669        0       1.00000000       0.00000029       0.00000069       0.00000253       0.00000104      -0.00000130       0.00000013
H        5.61231036       1.62012567      16.81106442        0       1.00000000       0.00000048       0.00000009       0.00000116       0.00000144       0.00000306       0.00000056
H        0.00000003       1.62013526       7.77136756        0       1.00000000       0.00000009      -0.00000020      -0.00000071      -0.00000079       0.00000023       0.00000032
H        1.40612037       4.05032642      16.81107028        0       1.00000000       0.00000019      -0.00000092       0.00000091       0.00000064      -0.00000047      -0.00000160
H        2.80615438       1.62013402       7.77136721        0       1.00000000      -0.00000069       0.00000019      -0.00000003       0.00000150      -0.00000171       0.00000189
19
Lattice="5.612310241546866 0.0 0.0 0.0 4.860403243099165 0.0 0.0 0.0 24.582432123328676" Properties=species:S:1:pos:R:3:tags:I:1:masses:R:1:momenta:R:3:forces:R:3 KEmax=24.559391461069055 iter=222236 volume=670.5618179858607 ns_energy=-12.52347632009521 last_walked_iter_clone=221018 energy=-12.523476320100542 stress="0.024004873686551048 -3.852370182261321e-09 -2.05148097937542e-09 -3.852370182261321e-09 0.024132708134406513 -1.8672816756188886e-09 -2.05148097937542e-09 -1.8672816756188886e-09 0.012739412164404128" pbc="T T F"
H        1.40307756       0.81006721      10.00000000        3       1.00000000       0.00000000       0.00000000       0.00000000       0.00000000       0.00000000       0.00000000
H        4.20923268       0.81006721      10.00000000        3       1.00000000       0.00000000       0.00000000       0.00000000       0.00000000       0.00000000       0.00000000
H        0.00000000       3.24026883      10.00000000        3       1.00000000       0.00000000       0.00000000       0.00000000       0.00000000       0.00000000       0.00000000
H        2.80615512       3.24026883      10.00000000        3       1.00000000       0.00000000       0.00000000       0.00000000       0.00000000       0.00000000       0.00000000
H        0.00000000       1.62013441      12.29121606        2       1.00000000       0.00000000       0.00000000       0.00000000       0.00000000       0.00000000       0.00000000
H        2.80615512       1.62013441      12.29121606        2       1.00000000       0.00000000       0.00000000       0.00000000       0.00000000       0.00000000       0.00000000
H        1.40307756       4.05033604      12.29121606        2       1.00000000       0.00000000       0.00000000       0.00000000       0.00000000       0.00000000       0.00000000
H        4.20923268       4.05033604      12.29121606        2       1.00000000       0.00000000       0.00000000       0.00000000       0.00000000       0.00000000       0.00000000