19
Lattice="5.612310241546866 0.0 0.0 0.0 4.860403243099165 0.0 0.0 0.0 24.582432123328676" Properties=species:S:1:pos:R:3:tags:I:1:masses:R:1:momenta:R:3 KEmax=24.559391461069055 iter=99 volume=670.5618179858607 ns_energy=78.5846798557035 last_walked_iter_clone=68 ns_P=0.0 config_n_global=99 ns_KE=22.078388418950194 pbc="T T T"
H        1.40307756       0.81006721      10.00000000        3       1.00000000       0.00000000       0.00000000       0.00000000
H        4.20923268       0.81006721      10.00000000        3       1.00000000       0.00000000       0.00000000       0.00000000
H        0.00000000       3.24026883      10.00000000        3       1.00000000       0.00000000       0.00000000       0.00000000
H        2.80615512       3.24026883      10.00000000        3       1.00000000       0.00000000       0.00000000       0.00000000
H        0.00000000       1.62013441      12.29121606        2       1.00000000       0.00000000       0.00000000       0.00000000
H        2.80615512       1.62013441      12.29121606        2       1.00000000       0.00000000       0.00000000       0.00000000
H        1.40307756       4.05033604      12.29121606        2       1.00000000       0.00000000       0.00000000       0.00000000
H        4.20923268       4.05033604      12.29121606        2       1.00000000       0.00000000       0.00000000       0.00000000
H        0.00000000       0.00000000      14.58243212        1       1.00000000       0.00000000       0.00000000       0.00000000
H        2.80615512       0.00000000      14.58243212        1       1.00000000       0.00000000       0.00000000       0.00000000
H        1.40307756       2.43020162      14.58243212        1       1.00000000       0.00000000       0.00000000       0.00000000
H        4.20923268       2.43020162      14.58243212        1       1.00000000       0.00000000       0.00000000       0.00000000
H        1.59121732       4.45504643       3.08106157        0       1.00000000      -1.27231468      -1.63996587       1.30458396
H        3.59519730       0.92991879       5.55634651        0       1.00000000      -1.49248680      -1.28251849      -3.50386763
H        2.04069464       0.97192457       1.31030155        0       1.00000000       2.02466395      -0.40298420      -0.65705818
H        3.52050385       4.26104144      24.23384099        0       1.00000000       0.15169321      -1.40669102       0.47694551
H        1.10042230       1.48533783      22.71601053        0       1.00000000       0.39169668      -0.05696861      -1.71962115
H        3.52704717       1.62214357       1.16862588        0       1.00000000       0.25181483       0.08079356       2.33823640
H        2.38542192       2.72532546       5.45332017        0       1.00000000       0.34452892       0.96467922       2.31820837
19
Lattice="5.612310241546866 0.0 0.0 0.0 4.860403243099165 0.0 0.0 0.0 24.582432123328676" Properties=species:S:1:pos:R:3:tags:I:1:masses:R:1:momenta:R:3 KEmax=24.559391461069055 iter=199 volume=670.5618179858607 ns_energy=15.462647788925517 last_walked_iter_clone=34 ns_P=0.0 config_n_global=199 ns_KE=24.09127648386074 pbc="T T T"
H        1.40307756       0.81006721      10.00000000        3       1.00000000       0.00000000       0.00000000       0.00000000
H        4.20923268       0.81006721      10.00000000        3       1.00000000       0.00000000       0.00000000       0.00000000
H        0.00000000       3.24026883      10.00000000        3       1.00000000       0.00000000       0.00000000       0.00000000
H        2.80615512       3.24026883      10.00000000        3       1.00000000       0.00000000       0.00000000       0.00000000
H        0.00000000       1.62013441      12.29121606        2       1.00000000       0.00000000       0.00000000       0.00000000
H        2.80615512       1.62013441      12.29121606        2       1.00000000       0.00000000       0.00000000       0.00000000
H        1.40307756       4.05033604      12.29121606        2       1.00000000       0.00000000       0.00000000       0.00000000
H        4.20923268       4.05033604      12.29121606        2       1.00000000       0.00000000       0.00000000       0.00000000
H        0.00000000       0.00000000      14.58243212        1       1.00000000       0.00000000       0.00000000       0.00000000
H        2.80615512       0.00000000      14.58243212        1       1.00000000       0.00000000       0.00000000       0.00000000
H        1.40307756       2.43020162      14.58243212        1       1.00000000       0.00000000       0.00000000       0.00000000
H        4.20923268       2.43020162      14.58243212        1       1.00000000       0.00000000       0.00000000       0.00000000
H        3.55461530       4.42477533       5.23808988        0       1.00000000      -1.25701578      -0.40193986       1.50578501
H        1.04528041       1.86800024       7.71851539        0       1.00000000       1.37042883       0.00073131       0.31349032
H        5.19891888       0.67198567       1.86265758        0       1.00000000       0.84095077      -0.76401955       1.49605362
H        5.53332752       3.30750381      19.82169806        0       1.00000000       0.37872422      -1.52632573       3.25016663
H        0.12951170       0.16019019       4.51882923        0       1.00000000       1.47964672       0.16139093       0.60777311
H        2.97976885       1.68572020       4.00001765        0       1.00000000       0.07615642       4.02381422      -0.17350601
H        1.77136539       3.52051054       1.29744641        0       1.00000000       0.58164069      -2.13955168       1.37971753
19
Lattice="5.612310241546866 0.0 0.0 0.0 4.860403243099165 0.0 0.0 0.0 24.582432123328676" Properties=species:S:1:pos:R:3:tags:I:1:masses:R:1:momenta:R:3 KEmax=24.559391461069055 iter=299 volume=670.5618179858607 ns_energy=13.648424785329626 last_walked_iter_clone=246 ns_P=0.0 config_n_global=299 ns_KE=22.32494655802184 pbc="T T T"
H        1.40307756       0.81006721      10.00000000        3       1.00000000       0.00000000       0.00000000       0.00000000
H        4.20923268       0.81006721      10.00000000        3       1.00000000       0.00000000       0.00000000       0.00000000
H        0.00000000       3.24026883      10.00000000        3       1.00000000       0.00000000       0.00000000       0.00000000
H        2.80615512       3.24026883      10.00000000        3       1.00000000       0.00000000       0.00000000       0.00000000
H        0.00000000       1.62013441      12.29121606        2       1.00000000       0.00000000       0.00000000       0.00000000
H        2.80615512       1.62013441      12.29121606        2       1.00000000       0.00000000       0.00000000       0.00000000
H        1.40307756       4.05033604      12.29121606        2       1.00000000       0.00000000       0.00000000       0.00000000
H        4.20923268       4.05033604      12.29121606        2       1.00000000       0.00000000       0.00000000       0.00000000
H        0.00000000       0.00000000      14.58243212        1       1.00000000       0.00000000       0.00000000       0.00000000
H        2.80615512       0.00000000      14.58243212        1       1.00000000       0.00000000       0.00000000       0.00000000
H        1.40307756       2.43020162      14.58243212        1       1.00000000       0.00000000       0.00000000       0.00000000
H        4.20923268       2.43020162      14.58243212        1       1.00000000       0.00000000       0.00000000       0.00000000
H        5.57559387       1.10073160      18.61987336        0       1.00000000      -1.59375318       0.33378750      -0.80818927
H        4.74803644       4.74345334       2.30611849        0       1.00000000       0.43916123      -0.31369874       0.91535384
H        1.20950059       3.38770269      17.10682783        0       1.00000000      -1.93305066       1.25423181      -2.15747688
H        2.01109445       3.75815577      19.47981515        0       1.00000000      -1.66418070       0.78210402       2.12528297
H        4.96794252       0.10811472       4.73600998        0       1.00000000      -0.15163576       1.05673036       2.54409242
H        5.60304638       3.49824379      20.79008793        0       1.00000000      -3.11334766       1.36085131       1.13755568
H        3.65077209       2.33306738       3.24422049        0       1.00000000       1.36074410       0.01819749       0.22516661
19
Lattice="5.612310241546866 0.0 0.0 0.0 4.860403243099165 0.0 0.0 0.0 24.582432123328676" Properties=species:S:1:pos:R:3:tags:I:1:masses:R:1:momenta:R:3 KEmax=24.559391461069055 iter=399 volume=670.5618179858607 ns_energy=12.013274857240098 last_walked_iter_clone=306 ns_P=0.0 config_n_global=399 ns_KE=20.423767154217032 pbc="T T T"
H        1.40307756       0.81006721      10.00000000        3       1.00000000       0.00000000       0.00000000       0.00000000
H        4.20923268       0.81006721      10.00000000        3       1.00000000       0.00000000       0.00000000       0.00000000
H        0.00000000       3.24026883      10.00000000        3       1.00000000       0.00000000       0.00000000       0.00000000
H        2.80615512       3.24026883      10.00000000        3       1.00000000       0.00000000       0.00000000       0.00000000
H        0.00000000       1.62013441      12.29121606        2       1.00000000       0.00000000       0.00000000       0.00000000
H        2.80615512       1.62013441      12.29121606        2       1.00000000       0.00000000       0.00000000       0.00000000
H        1.40307756       4.05033604      12.29121606        2       1.00000000       0.00000000       0.00000000       0.00000000
H        4.20923268       4.05033604      12.29121606        2       1.00000000       0.00000000       0.00000000       0.00000000
H        0.00000000       0.00000000      14.58243212        1       1.00000000       0.00000000       0.00000000       0.00000000
H        2.80615512       0.00000000      14.58243212        1       1.00000000       0.00000000       0.00000000       0.00000000
H        1.40307756       2.43020162      14.58243212        1       1.00000000       0.00000000       0.00000000       0.00000000
H        4.20923268       2.43020162      14.58243212        1       1.00000000       0.00000000       0.00000000       0.00000000
H        0.68422820       3.00357177      17.00572526        0       1.00000000       2.80676736       1.58285118       1.16273479
H        3.37095625       1.43694085       6.83728860        0       1.00000000       0.07481962      -1.34201773      -0.79565469
H        4.62787323       1.55593972      18.53020981        0       1.00000000      -0.27775843       0.46630555       0.29285490
H        2.55787028       2.03452290      24.11552181        0       1.00000000       0.97804034       0.48462085       0.28614863
H        4.67770429       0.89347156      22.86481876        0       1.00000000       0.68198673      -0.87869964      -1.09679328
H        3.11642163       2.11966330      21.55533119        0       1.00000000       1.97237372      -0.56088018      -1.95317594
H        3.20722964       0.58350058       3.04825403        0       1.00000000       0.11746788       0.35042857       3.79768023
19
Lattice="5.612310241546866 0.0 0.0 0.0 4.860403243099165 0.0 0.0 0.0 24.582432123328676" Properties=species:S:1:pos:R:3:tags:I:1:masses:R:1:momenta:R:3 KEmax=24.559391461069055 iter=499 volume=670.5618179858607 ns_energy=10.427167302172352 last_walked_iter_clone=428 ns_P=0.0 config_n_global=499 ns_KE=18.61221570902833 pbc="T T T"
H        1.40307756       0.81006721      10.00000000        3       1.00000000       0.00000000       0.00000000       0.00000000
H        4.20923268       0.81006721      10.00000000        3       1.00000000       0.00000000       0.00000000       0.00000000
H        0.00000000       3.24026883      10.00000000        3       1.00000000       0.00000000       0.00000000       0.00000000
H        2.80615512       3.24026883      10.00000000        3       1.00000000       0.00000000       0.00000000       0.00000000
H        0.00000000       1.62013441      12.29121606        2       1.00000000       0.00000000       0.00000000       0.00000000
H        2.80615512       1.62013441      12.29121606        2       1.00000000       0.00000000       0.00000000       0.00000000
H        1.40307756       4.05033604      12.29121606        2       1.00000000       0.00000000       0.00000000       0.00000000
H        4.20923268       4.05033604      12.29121606        2       1.00000000       0.00000000       0.00000000       0.00000000
H        0.00000000       0.00000000      14.58243212        1       1.00000000       0.00000000       0.00000000       0.00000000
H        2.80615512       0.00000000      14.58243212        1       1.00000000       0.00000000       0.00000000       0.00000000
H        1.40307756       2.43020162      14.58243212        1       1.00000000       0.00000000       0.00000000       0.00000000
H        4.20923268       2.43020162      14.58243212        1       1.00000000       0.00000000       0.00000000       0.00000000
H        2.40522012       2.37554577      19.74455883        0       1.00000000       0.07880407       1.60372348       1.86881537
H        4.54575496       3.47586643       3.32553808        0       1.00000000       0.91003242      -2.02652705       2.49260043
H        2.66025385       4.40561032      17.58617185        0       1.00000000      -0.38488258      -0.85602044      -0.45243172
H        2.37214684       3.11905785       7.36483244        0       1.00000000       0.15732638       0.87324859       0.45644232
H        2.49165037       4.58503929      22.00304818        0       1.00000000      -2.89286895      -0.44099273       1.26892569
H        0.54189673       3.56076967      22.62220552        0       1.00000000      -1.19275636       0.97320275      -0.24945069
H        1.43414865       3.63584019       4.84816310        0       1.00000000      -1.55801108      -1.37535673      -1.00008996
19
Lattice="5.612310241546866 0.0 0.0 0.0 4.860403243099165 0.0 0.0 0.0 24.582432123328676" Properties=species:S:1:pos:R:3:tags:I:1:masses:R:1:momenta:R:3 KEmax=24.559391461069055 iter=599 volume=670.5618179858607 ns_energy=9.06669049824413 last_walked_iter_clone=463 ns_P=0.0 config_n_global=599 ns_KE=16.389625920008775 pbc="T T T"
H        1.40307756       0.81006721      10.00000000        3       1.00000000       0.00000000       0.00000000       0.00000000
H        4.20923268       0.81006721      10.00000000        3       1.00000000       0.00000000       0.00000000       0.00000000
H        0.00000000       3.24026883      10.00000000        3       1.00000000       0.00000000       0.00000000       0.00000000
H        2.80615512       3.24026883      10.00000000        3       1.00000000       0.00000000       0.00000000       0.00000000
H        0.00000000       1.62013441      12.29121606        2       1.00000000       0.00000000       0.00000000       0.00000000
H        2.80615512       1.62013441      12.29121606        2       1.00000000       0.00000000       0.00000000       0.00000000
H        1.40307756       4.05033604      12.29121606        2       1.00000000       0.00000000       0.00000000       0.00000000
H        4.20923268       4.05033604      12.29121606        2       1.00000000       0.00000000       0.00000000       0.00000000
H        0.00000000       0.00000000      14.58243212        1       1.00000000       0.00000000       0.00000000       0.00000000
H        2.80615512       0.00000000      14.58243212        1       1.00000000       0.00000000       0.00000000       0.00000000
H        1.40307756       2.43020162      14.58243212        1       1.00000000       0.00000000       0.00000000       0.00000000
H        4.20923268       2.43020162      14.58243212        1       1.00000000       0.00000000       0.00000000       0.00000000
H        2.88843364       3.84498251      24.40376501        0       1.00000000      -0.05825201      -2.21160813       0.49689655
H        0.85768987       3.29114896      17.69457404        0       1.00000000       2.01998616      -1.55586276       0.53020464
H        1.38244254       2.09910148      23.70231279        0       1.00000000       0.18646578      -1.11258318      -0.96648781
H        5.26197155       0.12319085       1.40032014        0       1.00000000       0.02693292       0.11979289       1.08954526
H        0.39543034       0.14659732      23.53721441        0       1.00000000       0.61247699      -0.76743966      -1.73593864
H        1.72733855       3.70601660       4.18205873        0       1.00000000       1.47617775       1.92874695      -1.92335028
H        3.00471253       3.99780437      19.14511495        0       1.00000000      -1.62119034       1.05858845       0.34898929
19
Lattice="5.612310241546866 0.0 0.0 0.0 4.860403243099165 0.0 0.0 0.0 24.582432123328676" Properties=species:S:1:pos:R:3:tags:I:1:masses:R:1:momenta:R:3 KEmax=24.559391461069055 iter=699 volume=670.5618179858607 ns_energy=7.798075249056893 last_walked_iter_clone=594 ns_P=0.0 config_n_global=699 ns_KE=14.27140599826989 pbc="T T T"
H        1.40307756       0.81006721      10.00000000        3       1.00000000       0.00000000       0.00000000       0.00000000
H        4.20923268       0.81006721      10.00000000        3       1.00000000       0.00000000       0.00000000       0.00000000
H        0.00000000       3.24026883      10.00000000        3       1.00000000       0.00000000       0.00000000       0.00000000
H        2.80615512       3.24026883      10.00000000        3       1.00000000       0.00000000       0.00000000       0.00000000
H        0.00000000       1.62013441      12.29121606        2       1.00000000       0.00000000       0.00000000       0.00000000
H        2.80615512       1.62013441      12.29121606        2       1.00000000       0.00000000       0.00000000       0.00000000
H        1.40307756       4.05033604      12.29121606        2       1.00000000       0.00000000       0.00000000       0.00000000
H        4.20923268       4.05033604      12.29121606        2       1.00000000       0.00000000       0.00000000       0.00000000
H        0.00000000       0.00000000      14.58243212        1       1.00000000       0.00000000       0.00000000       0.00000000
H        2.80615512       0.00000000      14.58243212        1       1.00000000       0.00000000       0.00000000       0.00000000
H        1.40307756       2.43020162      14.58243212        1       1.00000000       0.00000000       0.00000000       0.00000000
H        4.20923268       2.43020162      14.58243212        1       1.00000000       0.00000000       0.00000000       0.00000000
H        3.35790338       2.66977705       7.91083291        0       1.00000000      -0.13028777       1.38848451      -0.90414090
H        2.13007699       4.78963693       1.37434508        0       1.00000000       1.04265254       2.27921668       0.30727974
H        1.06642438       3.19661253      16.89302366        0       1.00000000       0.62722952       1.39185962      -0.88823424
H        4.40866387       4.11156005       0.79405443        0       1.00000000      -0.42123641      -0.46931141      -0.83668709
H        3.34004315       0.20938970      23.03100294        0       1.00000000       0.28074620      -0.45069204       1.49792439
H        4.67635369       0.89467016       7.58969405        0       1.00000000      -0.73978749       0.20540266       3.10236408
H        0.86935180       4.54815942       7.35611211        0       1.00000000      -1.00528621      -0.79071258      -0.90057198
19
Lattice="5.612310241546866 0.0 0.0 0.0 4.860403243099165 0.0 0.0 0.0 24.582432123328676" Properties=species:S:1:pos:R:3:tags:I:1:masses:R:1:momenta:R:3 KEmax=24.559391461069055 iter=799 volume=670.5618179858607 ns_energy=6.588199997862848 last_walked_iter_clone=722 ns_P=0.0 config_n_global=799 ns_KE=14.87231807092647 pbc="T T T"
H        1.40307756       0.81006721      10.00000000        3       1.00000000       0.00000000       0.00000000       0.00000000
H        4.20923268       0.81006721      10.00000000        3       1.00000000       0.00000000       0.00000000       0.00000000
H        0.00000000       3.24026883      10.00000000        3       1.00000000       0.00000000       0.00000000       0.00000000
H        2.80615512       3.24026883      10.00000000        3       1.00000000       0.00000000       0.00000000       0.00000000
H        0.00000000       1.62013441      12.29121606        2       1.00000000       0.00000000       0.00000000       0.00000000
H        2.80615512       1.62013441      12.29121606        2       1.00000000       0.00000000       0.00000000       0.00000000
H        1.40307756       4.05033604      12.29121606        2       1.00000000       0.00000000       0.00000000       0.00000000
H        4.20923268       4.05033604      12.29121606        2       1.00000000       0.00000000       0.00000000       0.00000000
H        0.00000000       0.00000000      14.58243212        1       1.00000000       0.00000000       0.00000000       0.00000000
H        2.80615512       0.00000000      14.58243212        1       1.00000000       0.00000000       0.00000000       0.00000000
H        1.40307756       2.43020162      14.58243212        1       1.00000000       0.00000000       0.00000000       0.00000000
H        4.20923268       2.43020162      14.58243212        1       1.00000000       0.00000000       0.00000000       0.00000000
H        5.31555480       4.98891870      19.37741108        0       1.00000000      -1.26225976       1.92334254       2.46767651
H        1.09522264       0.13023857       4.29973266        0       1.00000000      -0.91885860      -0.26937346       0.62283798
H        1.78422669       3.32697733       1.97257479        0       1.00000000       0.60329628      -0.02384102      -0.00208038
H        3.71621849       1.07456564      21.27694045        0       1.00000000       0.52346452      -0.53521314       1.10406587
H        2.29152508       2.55966375      19.00540780        0       1.00000000       1.51274189      -0.80114110       1.08034472
H        4.05947807       2.82990227       3.56922473        0       1.00000000       0.84117726       1.33868290      -1.11147971
H        3.73712351       3.59103405      20.94720573        0       1.00000000       1.89505223      -1.59004792       0.98083132
19
Lattice="5.612310241546866 0.0 0.0 0.0 4.860403243099165 0.0 0.0 0.0 24.582432123328676" Properties=species:S:1:pos:R:3:tags:I:1:masses:R:1:momenta:R:3 KEmax=24.559391461069055 iter=899 volume=670.5618179858607 ns_energy=5.63681791891222 last_walked_iter_clone=841 ns_P=0.0 config_n_global=899 ns_KE=13.287232454895603 pbc="T T T"
H        1.40307756       0.81006721      10.00000000        3       1.00000000       0.00000000       0.00000000       0.00000000
H        4.20923268       0.81006721      10.00000000        3       1.00000000       0.00000000       0.00000000       0.00000000
H        0.00000000       3.24026883      10.00000000        3       1.00000000       0.00000000       0.00000000       0.00000000
H        2.80615512       3.24026883      10.00000000        3       1.00000000       0.00000000       0.00000000       0.00000000
H        0.00000000       1.62013441      12.29121606        2       1.00000000       0.00000000       0.00000000       0.00000000
H        2.80615512       1.62013441      12.29121606        2       1.00000000       0.00000000       0.00000000       0.00000000
H        1.40307756       4.05033604      12.29121606        2       1.00000000       0.00000000       0.00000000       0.00000000
H        4.20923268       4.05033604      12.29121606        2       1.00000000       0.00000000       0.00000000       0.00000000
H        0.00000000       0.00000000      14.58243212        1       1.00000000       0.00000000       0.00000000       0.00000000
H        2.80615512       0.00000000      14.58243212        1       1.00000000       0.00000000       0.00000000       0.00000000
H        1.40307756       2.43020162      14.58243212        1       1.00000000       0.00000000       0.00000000       0.00000000
H        4.20923268       2.43020162      14.58243212        1       1.00000000       0.00000000       0.00000000       0.00000000
H        3.53578516       1.83306478       2.71201284        0       1.00000000       1.60317510       0.32742663      -0.25484492
H        0.37852042       4.41535755       7.08417331        0       1.00000000       1.03520136      -0.04236713       0.69367197
H        3.08699617       0.27683094      22.97231447        0       1.00000000      -0.43871707      -1.19444910      -0.46520385
H        5.37507065       4.57137137       1.32613249        0       1.00000000      -0.37001828       1.49363813       1.00183526
H        3.14874558       1.65544827       5.87322454        0       1.00000000       0.47672850       1.49690778      -0.17877059
H        1.71014033       4.12291412      20.16928409        0       1.00000000       0.67302405      -1.25871488      -1.76520297
H        1.87222138       4.33601295       0.67591089        0       1.00000000       1.33403618       2.38186687       1.40150429
19
Lattice="5.612310241546866 0.0 0.0 0.0 4.860403243099165 0.0 0.0 0.0 24.582432123328676" Properties=species:S:1:pos:R:3:tags:I:1:masses:R:1:momenta:R:3 KEmax=24.559391461069055 iter=999 volume=670.5618179858607 ns_energy=4.666396250038589 last_walked_iter_clone=972 ns_P=0.0 config_n_global=999 ns_KE=13.251595948949545 pbc="T T T"
H        1.40307756       0.81006721      10.00000000        3       1.00000000       0.00000000       0.00000000       0.00000000
H        4.20923268       0.81006721      10.00000000        3       1.00000000       0.00000000       0.00000000       0.00000000
H        0.00000000       3.24026883      10.00000000        3       1.00000000       0.00000000       0.00000000       0.00000000
H        2.80615512       3.24026883      10.00000000        3       1.00000000       0.00000000       0.00000000       0.00000000
H        0.00000000       1.62013441      12.29121606        2       1.00000000       0.00000000       0.00000000       0.00000000
H        2.80615512       1.62013441      12.29121606        2       1.00000000       0.00000000       0.00000000       0.00000000
H        1.40307756       4.05033604      12.29121606        2       1.00000000       0.00000000       0.00000000       0.00000000
H        4.20923268       4.05033604      12.29121606        2       1.00000000       0.00000000       0.00000000       0.00000000
H        0.00000000       0.00000000      14.58243212        1       1.00000000       0.00000000       0.00000000       0.00000000
H        2.80615512       0.00000000      14.58243212        1       1.00000000       0.00000000       0.00000000       0.00000000
H        1.40307756       2.43020162      14.58243212        1       1.00000000       0.00000000       0.00000000       0.00000000
H        4.20923268       2.43020162      14.58243212        1       1.00000000       0.00000000       0.00000000       0.00000000
H        1.90975517       0.86080242       6.99118183        0       1.00000000      -1.16217657       0.71379686      -0.43925726
H        1.85758763       4.17417360       2.09432652        0       1.00000000      -0.54147382      -1.78963281       0.68541913
H       -0.01407600       2.27414837      23.49512492        0       1.00000000      -0.80109393       2.57626935       0.21033076
H        4.50284249       3.29969495       7.84197244        0       1.00000000       0.56309545       2.71612225       1.13432537
H        5.55385464       0.75605911       5.35009181        0       1.00000000       0.04152558      -0.53504104       0.94163867
H        4.28563789       3.28619356      21.16997716        0       1.00000000      -0.19821840       0.64031299       0.73943961
H        3.95899738       4.84822099      19.10253953        0       1.00000000       1.10518205       0.15186055       0.87454731
19
Lattice="5.612310241546866 0.0 0.0 0.0 4.860403243099165 0.0 0.0 0.0 24.582432123328676" Properties=species:S:1:pos:R:3:tags:I:1:masses:R:1:momenta:R:3 KEmax=24.559391461069055 iter=1099 volume=670.5618179858607 ns_energy=3.8495561902622004 last_walked_iter_clone=1051 ns_P=0.0 config_n_global=1099 ns_KE=12.758944151998275 pbc="T T T"
H        1.40307756       0.81006721      10.00000000        3       1.00000000       0.00000000       0.00000000       0.00000000
H        4.20923268       0.81006721      10.00000000        3       1.00000000       0.00000000       0.00000000       0.00000000
H        0.00000000       3.24026883      10.00000000        3       1.00000000       0.00000000       0.00000000       0.00000000
H        2.80615512       3.24026883      10.00000000        3       1.00000000       0.00000000       0.00000000       0.00000000
H        0.00000000       1.62013441      12.29121606        2       1.00000000       0.00000000       0.00000000       0.00000000
H        2.80615512       1.62013441      12.29121606        2       1.00000000       0.00000000       0.00000000       0.00000000
H        1.40307756       4.05033604      12.29121606        2       1.00000000       0.00000000       0.00000000       0.00000000
H        4.20923268       4.05033604      12.29121606        2       1.00000000       0.00000000       0.00000000       0.00000000
H        0.00000000       0.00000000      14.58243212        1       1.00000000       0.00000000       0.00000000       0.00000000
H        2.80615512       0.00000000      14.58243212        1       1.00000000       0.00000000       0.00000000       0.00000000