19
Lattice="5.612310241546866 0.0 0.0 0.0 4.860403243099165 0.0 0.0 0.0 24.582432123328676" Properties=species:S:1:pos:R:3:tags:I:1:masses:R:1:momenta:R:3:forces:R:3 KEmax=24.559391461069055 iter=59835 volume=670.5618179858607 ns_energy=-12.535374676973369 last_walked_iter_clone=59682 energy=-12.535374843776491 stress="0.00871135780356568 1.6209173927882628e-08 -2.0116351546690492e-07 1.6209173927882628e-08 0.00874835644406568 3.2352081759604313e-06 -2.0116351546690492e-07 3.2352081759604313e-06 0.0042315214454803005" pbc="T T T"
H        1.40307756       0.81006721      10.00000000        3       1.00000000       0.00000000       0.00000000       0.00000000       0.00000000       0.00000000       0.00000000
H        4.20923268       0.81006721      10.00000000        3       1.00000000       0.00000000       0.00000000       0.00000000       0.00000000       0.00000000       0.00000000
H        0.00000000       3.24026883      10.00000000        3       1.00000000       0.00000000       0.00000000       0.00000000       0.00000000       0.00000000       0.00000000
H        2.80615512       3.24026883      10.00000000        3       1.00000000       0.00000000       0.00000000       0.00000000       0.00000000       0.00000000       0.00000000
H        0.00000000       1.62013441      12.29121606        2       1.00000000       0.00000000       0.00000000       0.00000000       0.00000000       0.00000000       0.00000000
H        2.80615512       1.62013441      12.29121606        2       1.00000000       0.00000000       0.00000000       0.00000000       0.00000000       0.00000000       0.00000000
H        1.40307756       4.05033604      12.29121606        2       1.00000000       0.00000000       0.00000000       0.00000000       0.00000000       0.00000000       0.00000000
H        4.20923268       4.05033604      12.29121606        2       1.00000000       0.00000000       0.00000000       0.00000000       0.00000000       0.00000000       0.00000000
H        0.00000000       0.00000000      14.58243212        1       1.00000000       0.00000000       0.00000000       0.00000000       0.00000000       0.00000000       0.00000000
H        2.80615512       0.00000000      14.58243212        1       1.00000000       0.00000000       0.00000000       0.00000000       0.00000000       0.00000000       0.00000000
H        1.40307756       2.43020162      14.58243212        1       1.00000000       0.00000000       0.00000000       0.00000000       0.00000000       0.00000000       0.00000000
H        4.20923268       2.43020162      14.58243212        1       1.00000000       0.00000000       0.00000000       0.00000000       0.00000000       0.00000000       0.00000000
H        1.40301685       4.06648543       7.78332422        0       1.00000000       0.00005106       0.00016256       0.00001962       0.00054955       0.00001765      -0.00045410
H        2.80398809       3.24083285       5.56395031        0       1.00000000       0.00007081       0.00021932       0.00003287      -0.00004158      -0.00009877       0.00008091
H        0.00199355       3.24102303       5.56379964        0       1.00000000       0.00025256       0.00023866       0.00024443       0.00012631       0.00051427       0.00005140
H        4.20918147       4.04246858       7.80009980        0       1.00000000       0.00014300      -0.00000881       0.00000754      -0.00044418       0.00074247       0.00044313
H        0.00758072       1.61646268       7.78110659        0       1.00000000      -0.00007445      -0.00034475      -0.00003546      -0.00028702      -0.00048598       0.00026654
H        2.79861482       1.61608403       7.78120029        0       1.00000000      -0.00001680       0.00003178       0.00010100      -0.00024505      -0.00032220      -0.00028196
H        4.20933606       0.80631824       5.56559199        0       1.00000000      -0.00002443      -0.00012196      -0.00015684       0.00009693       0.00009971      -0.00002042
19
Lattice="5.612310241546866 0.0 0.0 0.0 4.860403243099165 0.0 0.0 0.0 24.582432123328676" Properties=species:S:1:pos:R:3:tags:I:1:masses:R:1:momenta:R:3:forces:R:3 KEmax=24.559391461069055 iter=59835 volume=670.5618179858607 ns_energy=-12.535374683786197 last_walked_iter_clone=59703 energy=-12.535374843776491 stress="0.00871135780356568 1.6209173927882628e-08 -2.0116351546690492e-07 1.6209173927882628e-08 0.00874835644406568 3.2352081759604313e-06 -2.0116351546690492e-07 3.2352081759604313e-06 0.0042315214454803005" pbc="T T T"
H        1.40307756       0.81006721      10.00000000        3       1.00000000       0.00000000       0.00000000       0.00000000       0.00000000       0.00000000       0.00000000
H        4.20923268       0.81006721      10.00000000        3       1.00000000       0.00000000       0.00000000       0.00000000       0.00000000       0.00000000       0.00000000
H        0.00000000       3.24026883      10.00000000        3       1.00000000       0.00000000       0.00000000       0.00000000       0.00000000       0.00000000       0.00000000
H        2.80615512       3.24026883      10.00000000        3       1.00000000       0.00000000       0.00000000       0.00000000       0.00000000       0.00000000       0.00000000
H        0.00000000       1.62013441      12.29121606        2       1.00000000       0.00000000       0.00000000       0.00000000       0.00000000       0.00000000       0.00000000
H        2.80615512       1.62013441      12.29121606        2       1.00000000       0.00000000       0.00000000       0.00000000       0.00000000       0.00000000       0.00000000
H        1.40307756       4.05033604      12.29121606        2       1.00000000       0.00000000       0.00000000       0.00000000       0.00000000       0.00000000       0.00000000
H        4.20923268       4.05033604      12.29121606        2       1.00000000       0.00000000       0.00000000       0.00000000       0.00000000       0.00000000       0.00000000
H        0.00000000       0.00000000      14.58243212        1       1.00000000       0.00000000       0.00000000       0.00000000       0.00000000       0.00000000       0.00000000
H        2.80615512       0.00000000      14.58243212        1       1.00000000       0.00000000       0.00000000       0.00000000       0.00000000       0.00000000       0.00000000
H        1.40307756       2.43020162      14.58243212        1       1.00000000       0.00000000       0.00000000       0.00000000       0.00000000       0.00000000       0.00000000
H        4.20923268       2.43020162      14.58243212        1       1.00000000       0.00000000       0.00000000       0.00000000       0.00000000       0.00000000       0.00000000
H        1.40298229       4.06647157       7.78317334        0       1.00000000      -0.00012201      -0.00017519      -0.00000738       0.00054955       0.00001765      -0.00045410
H        2.80397821       3.24080178       5.56399510        0       1.00000000      -0.00011487      -0.00007446       0.00002743      -0.00004158      -0.00009877       0.00008091
H        0.00226829       3.24082179       5.56394667        0       1.00000000      -0.00003826      -0.00010990      -0.00005639       0.00012631       0.00051427       0.00005140
H        4.20932477       4.04223422       7.80026210        0       1.00000000       0.00006491      -0.00020487      -0.00008573      -0.00044418       0.00074247       0.00044313
H        0.00751128       1.61625839       7.78121261        0       1.00000000      -0.00008796      -0.00017576      -0.00033213      -0.00028702      -0.00048598       0.00026654
H        2.79845643       1.61635590       7.78134856        0       1.00000000       0.00049370       0.00036322      -0.00002205      -0.00024505      -0.00032220      -0.00028196
H        4.20901252       0.80637813       5.56576960        0       1.00000000       0.00004416       0.00000608       0.00010206       0.00009693       0.00009971      -0.00002042
19
Lattice="5.612310241546866 0.0 0.0 0.0 4.860403243099165 0.0 0.0 0.0 24.582432123328676" Properties=species:S:1:pos:R:3:tags:I:1:masses:R:1:momenta:R:3:forces:R:3 KEmax=24.559391461069055 iter=59835 volume=670.5618179858607 ns_energy=-12.535374676941387 last_walked_iter_clone=59713 energy=-12.535374843776491 stress="0.00871135780356568 1.6209173927882628e-08 -2.0116351546690492e-07 1.6209173927882628e-08 0.00874835644406568 3.2352081759604313e-06 -2.0116351546690492e-07 3.2352081759604313e-06 0.0042315214454803005" pbc="T T T"
H        1.40307756       0.81006721      10.00000000        3       1.00000000       0.00000000       0.00000000       0.00000000       0.00000000       0.00000000       0.00000000
H        4.20923268       0.81006721      10.00000000        3       1.00000000       0.00000000       0.00000000       0.00000000       0.00000000       0.00000000       0.00000000
H        0.00000000       3.24026883      10.00000000        3       1.00000000       0.00000000       0.00000000       0.00000000       0.00000000       0.00000000       0.00000000
H        2.80615512       3.24026883      10.00000000        3       1.00000000       0.00000000       0.00000000       0.00000000       0.00000000       0.00000000       0.00000000
H        0.00000000       1.62013441      12.29121606        2       1.00000000       0.00000000       0.00000000       0.00000000       0.00000000       0.00000000       0.00000000
H        2.80615512       1.62013441      12.29121606        2       1.00000000       0.00000000       0.00000000       0.00000000       0.00000000       0.00000000       0.00000000
H        1.40307756       4.05033604      12.29121606        2       1.00000000       0.00000000       0.00000000       0.00000000       0.00000000       0.00000000       0.00000000
H        4.20923268       4.05033604      12.29121606        2       1.00000000       0.00000000       0.00000000       0.00000000       0.00000000       0.00000000       0.00000000
H        0.00000000       0.00000000      14.58243212        1       1.00000000       0.00000000       0.00000000       0.00000000       0.00000000       0.00000000       0.00000000
H        2.80615512       0.00000000      14.58243212        1       1.00000000       0.00000000       0.00000000       0.00000000       0.00000000       0.00000000       0.00000000
H        1.40307756       2.43020162      14.58243212        1       1.00000000       0.00000000       0.00000000       0.00000000       0.00000000       0.00000000       0.00000000
H        4.20923268       2.43020162      14.58243212        1       1.00000000       0.00000000       0.00000000       0.00000000       0.00000000       0.00000000       0.00000000
H        1.40319396       4.06658537       7.78315529        0       1.00000000       0.00002544      -0.00012963      -0.00018454       0.00054955       0.00001765      -0.00045410
H        2.80411969       3.24090022       5.56385090        0       1.00000000      -0.00031029      -0.00000335       0.00013409      -0.00004158      -0.00009877       0.00008091
H        0.00236824       3.24087239       5.56399083        0       1.00000000      -0.00000396      -0.00002937       0.00013742       0.00012631       0.00051427       0.00005140
H        4.20931910       4.04246907       7.80012020        0       1.00000000       0.00000411      -0.00028462       0.00030663      -0.00044418       0.00074247       0.00044313
H        0.00763978       1.61632933       7.78112220        0       1.00000000      -0.00010092      -0.00020867      -0.00017252      -0.00028702      -0.00048598       0.00026654
H        2.79874078       1.61659523       7.78118180        0       1.00000000       0.00016345       0.00034683      -0.00007950      -0.00024505      -0.00032220      -0.00028196
H        4.20909150       0.80662327       5.56553637        0       1.00000000      -0.00006152       0.00002273      -0.00023934       0.00009693       0.00009971      -0.00002042
19
Lattice="5.612310241546866 0.0 0.0 0.0 4.860403243099165 0.0 0.0 0.0 24.582432123328676" Properties=species:S:1:pos:R:3:tags:I:1:masses:R:1:momenta:R:3:forces:R:3 KEmax=24.559391461069055 iter=59835 volume=670.5618179858607 ns_energy=-12.535374682957688 last_walked_iter_clone=59727 energy=-12.535374843776491 stress="0.00871135780356568 1.6209173927882628e-08 -2.0116351546690492e-07 1.6209173927882628e-08 0.00874835644406568 3.2352081759604313e-06 -2.0116351546690492e-07 3.2352081759604313e-06 0.0042315214454803005" pbc="T T T"
H        1.40307756       0.81006721      10.00000000        3       1.00000000       0.00000000       0.00000000       0.00000000       0.00000000       0.00000000       0.00000000
H        4.20923268       0.81006721      10.00000000        3       1.00000000       0.00000000       0.00000000       0.00000000       0.00000000       0.00000000       0.00000000
H        0.00000000       3.24026883      10.00000000        3       1.00000000       0.00000000       0.00000000       0.00000000       0.00000000       0.00000000       0.00000000
H        2.80615512       3.24026883      10.00000000        3       1.00000000       0.00000000       0.00000000       0.00000000       0.00000000       0.00000000       0.00000000
H        0.00000000       1.62013441      12.29121606        2       1.00000000       0.00000000       0.00000000       0.00000000       0.00000000       0.00000000       0.00000000
H        2.80615512       1.62013441      12.29121606        2       1.00000000       0.00000000       0.00000000       0.00000000       0.00000000       0.00000000       0.00000000
H        1.40307756       4.05033604      12.29121606        2       1.00000000       0.00000000       0.00000000       0.00000000       0.00000000       0.00000000       0.00000000
H        4.20923268       4.05033604      12.29121606        2       1.00000000       0.00000000       0.00000000       0.00000000       0.00000000       0.00000000       0.00000000
H        0.00000000       0.00000000      14.58243212        1       1.00000000       0.00000000       0.00000000       0.00000000       0.00000000       0.00000000       0.00000000
H        2.80615512       0.00000000      14.58243212        1       1.00000000       0.00000000       0.00000000       0.00000000       0.00000000       0.00000000       0.00000000
H        1.40307756       2.43020162      14.58243212        1       1.00000000       0.00000000       0.00000000       0.00000000       0.00000000       0.00000000       0.00000000
H        4.20923268       2.43020162      14.58243212        1       1.00000000       0.00000000       0.00000000       0.00000000       0.00000000       0.00000000       0.00000000
H        1.40305742       4.06625967       7.78323097        0       1.00000000      -0.00013713      -0.00002775      -0.00006918       0.00054955       0.00001765      -0.00045410
H        2.80405052       3.24045363       5.56385619        0       1.00000000       0.00030459       0.00013717       0.00014632      -0.00004158      -0.00009877       0.00008091
H        0.00223765       3.24069871       5.56402620        0       1.00000000      -0.00031608      -0.00012343       0.00012205       0.00012631       0.00051427       0.00005140
H        4.20919744       4.04238576       7.80002272        0       1.00000000      -0.00011576      -0.00002513       0.00002998      -0.00044418       0.00074247       0.00044313
H        0.00733656       1.61613953       7.78126860        0       1.00000000       0.00015316      -0.00022530      -0.00002080      -0.00028702      -0.00048598       0.00026654
H        2.79849359       1.61626492       7.78117109        0       1.00000000      -0.00038536       0.00005252       0.00004431      -0.00024505      -0.00032220      -0.00028196
H        4.20935927       0.80614091       5.56557202        0       1.00000000      -0.00027951       0.00008133       0.00001093       0.00009693       0.00009971      -0.00002042
19
Lattice="5.612310241546866 0.0 0.0 0.0 4.860403243099165 0.0 0.0 0.0 24.582432123328676" Properties=species:S:1:pos:R:3:tags:I:1:masses:R:1:momenta:R:3:forces:R:3 KEmax=24.559391461069055 iter=59835 volume=670.5618179858607 ns_energy=-12.535374682600882 last_walked_iter_clone=59809 energy=-12.535374843776491 stress="0.00871135780356568 1.6209173927882628e-08 -2.0116351546690492e-07 1.6209173927882628e-08 0.00874835644406568 3.2352081759604313e-06 -2.0116351546690492e-07 3.2352081759604313e-06 0.0042315214454803005" pbc="T T T"
H        1.40307756       0.81006721      10.00000000        3       1.00000000       0.00000000       0.00000000       0.00000000       0.00000000       0.00000000       0.00000000
H        4.20923268       0.81006721      10.00000000        3       1.00000000       0.00000000       0.00000000       0.00000000       0.00000000       0.00000000       0.00000000
H        0.00000000       3.24026883      10.00000000        3       1.00000000       0.00000000       0.00000000       0.00000000       0.00000000       0.00000000       0.00000000
H        2.80615512       3.24026883      10.00000000        3       1.00000000       0.00000000       0.00000000       0.00000000       0.00000000       0.00000000       0.00000000
H        0.00000000       1.62013441      12.29121606        2       1.00000000       0.00000000       0.00000000       0.00000000       0.00000000       0.00000000       0.00000000
H        2.80615512       1.62013441      12.29121606        2       1.00000000       0.00000000       0.00000000       0.00000000       0.00000000       0.00000000       0.00000000
H        1.40307756       4.05033604      12.29121606        2       1.00000000       0.00000000       0.00000000       0.00000000       0.00000000       0.00000000       0.00000000
H        4.20923268       4.05033604      12.29121606        2       1.00000000       0.00000000       0.00000000       0.00000000       0.00000000       0.00000000       0.00000000
H        0.00000000       0.00000000      14.58243212        1       1.00000000       0.00000000       0.00000000       0.00000000       0.00000000       0.00000000       0.00000000
H        2.80615512       0.00000000      14.58243212        1       1.00000000       0.00000000       0.00000000       0.00000000       0.00000000       0.00000000       0.00000000
H        1.40307756       2.43020162      14.58243212        1       1.00000000       0.00000000       0.00000000       0.00000000       0.00000000       0.00000000       0.00000000
H        4.20923268       2.43020162      14.58243212        1       1.00000000       0.00000000       0.00000000       0.00000000       0.00000000       0.00000000       0.00000000
H        1.40326350       4.06646050       7.78317079        0       1.00000000       0.00000528       0.00011213       0.00014332       0.00054955       0.00001765      -0.00045410
H        2.80408707       3.24091717       5.56387887        0       1.00000000      -0.00004757       0.00031785      -0.00010798      -0.00004158      -0.00009877       0.00008091
H        0.00217696       3.24069177       5.56380202        0       1.00000000      -0.00004655       0.00014975      -0.00001928       0.00012631       0.00051427       0.00005140
H        4.20945551       4.04232745       7.80021702        0       1.00000000      -0.00003597      -0.00021735       0.00022342      -0.00044418       0.00074247       0.00044313
H        0.00776289       1.61638839       7.78108737        0       1.00000000       0.00028341      -0.00009179       0.00001713      -0.00028702      -0.00048598       0.00026654
H        2.79893705       1.61644798       7.78127673        0       1.00000000      -0.00013693      -0.00031538      -0.00010906      -0.00024505      -0.00032220      -0.00028196
H        4.20939160       0.80650616       5.56568546        0       1.00000000      -0.00011627      -0.00021922      -0.00004028       0.00009693       0.00009971      -0.00002042
19
Lattice="5.612310241546866 0.0 0.0 0.0 4.860403243099165 0.0 0.0 0.0 24.582432123328676" Properties=species:S:1:pos:R:3:tags:I:1:masses:R:1:momenta:R:3:forces:R:3 KEmax=24.559391461069055 iter=59835 volume=670.5618179858607 ns_energy=-12.535374694209802 last_walked_iter_clone=59706 energy=-12.535374843776491 stress="0.00871135780356568 1.6209173927882628e-08 -2.0116351546690492e-07 1.6209173927882628e-08 0.00874835644406568 3.2352081759604313e-06 -2.0116351546690492e-07 3.2352081759604313e-06 0.0042315214454803005" pbc="T T T"
H        1.40307756       0.81006721      10.00000000        3       1.00000000       0.00000000       0.00000000       0.00000000       0.00000000       0.00000000       0.00000000
H        4.20923268       0.81006721      10.00000000        3       1.00000000       0.00000000       0.00000000       0.00000000       0.00000000       0.00000000       0.00000000
H        0.00000000       3.24026883      10.00000000        3       1.00000000       0.00000000       0.00000000       0.00000000       0.00000000       0.00000000       0.00000000
H        2.80615512       3.24026883      10.00000000        3       1.00000000       0.00000000       0.00000000       0.00000000       0.00000000       0.00000000       0.00000000
H        0.00000000       1.62013441      12.29121606        2       1.00000000       0.00000000       0.00000000       0.00000000       0.00000000       0.00000000       0.00000000
H        2.80615512       1.62013441      12.29121606        2       1.00000000       0.00000000       0.00000000       0.00000000       0.00000000       0.00000000       0.00000000
H        1.40307756       4.05033604      12.29121606        2       1.00000000       0.00000000       0.00000000       0.00000000       0.00000000       0.00000000       0.00000000
H        4.20923268       4.05033604      12.29121606        2       1.00000000       0.00000000       0.00000000       0.00000000       0.00000000       0.00000000       0.00000000
H        0.00000000       0.00000000      14.58243212        1       1.00000000       0.00000000       0.00000000       0.00000000       0.00000000       0.00000000       0.00000000
H        2.80615512       0.00000000      14.58243212        1       1.00000000       0.00000000       0.00000000       0.00000000       0.00000000       0.00000000       0.00000000
H        1.40307756       2.43020162      14.58243212        1       1.00000000       0.00000000       0.00000000       0.00000000       0.00000000       0.00000000       0.00000000
H        4.20923268       2.43020162      14.58243212        1       1.00000000       0.00000000       0.00000000       0.00000000       0.00000000       0.00000000       0.00000000
H        1.40307256       4.06640383       7.78324055        0       1.00000000       0.00014193      -0.00010597       0.00006416       0.00054955       0.00001765      -0.00045410
H        2.80387106       3.24084148       5.56376710        0       1.00000000      -0.00030657       0.00013925       0.00000681      -0.00004158      -0.00009877       0.00008091
H        0.00209466       3.24091024       5.56421180        0       1.00000000      -0.00029586       0.00022133       0.00007260       0.00012631       0.00051427       0.00005140
H        4.20903836       4.04247710       7.80018582        0       1.00000000       0.00012656      -0.00007615      -0.00014572      -0.00044418       0.00074247       0.00044313
H        0.00758406       1.61616618       7.78126362        0       1.00000000      -0.00004707      -0.00019817       0.00013335      -0.00028702      -0.00048598       0.00026654
H        2.79853735       1.61625577       7.78110704        0       1.00000000       0.00008305       0.00022146       0.00017330      -0.00024505      -0.00032220      -0.00028196
H        4.20906455       0.80647122       5.56551008        0       1.00000000      -0.00001118       0.00021866      -0.00016629       0.00009693       0.00009971      -0.00002042
19
Lattice="5.612310241546866 0.0 0.0 0.0 4.860403243099165 0.0 0.0 0.0 24.582432123328676" Properties=species:S:1:pos:R:3:tags:I:1:masses:R:1:momenta:R:3:forces:R:3 KEmax=24.559391461069055 iter=59835 volume=670.5618179858607 ns_energy=-12.535374678991973 last_walked_iter_clone=59619 energy=-12.535374843776491 stress="0.00871135780356568 1.6209173927882628e-08 -2.0116351546690492e-07 1.6209173927882628e-08 0.00874835644406568 3.2352081759604313e-06 -2.0116351546690492e-07 3.2352081759604313e-06 0.0042315214454803005" pbc="T T T"
H        1.40307756       0.81006721      10.00000000        3       1.00000000       0.00000000       0.00000000       0.00000000       0.00000000       0.00000000       0.00000000
H        4.20923268       0.81006721      10.00000000        3       1.00000000       0.00000000       0.00000000       0.00000000       0.00000000       0.00000000       0.00000000
H        0.00000000       3.24026883      10.00000000        3       1.00000000       0.00000000       0.00000000       0.00000000       0.00000000       0.00000000       0.00000000
H        2.80615512       3.24026883      10.00000000        3       1.00000000       0.00000000       0.00000000       0.00000000       0.00000000       0.00000000       0.00000000
H        0.00000000       1.62013441      12.29121606        2       1.00000000       0.00000000       0.00000000       0.00000000       0.00000000       0.00000000       0.00000000
H        2.80615512       1.62013441      12.29121606        2       1.00000000       0.00000000       0.00000000       0.00000000       0.00000000       0.00000000       0.00000000
H        1.40307756       4.05033604      12.29121606        2       1.00000000       0.00000000       0.00000000       0.00000000       0.00000000       0.00000000       0.00000000
H        4.20923268       4.05033604      12.29121606        2       1.00000000       0.00000000       0.00000000       0.00000000       0.00000000       0.00000000       0.00000000
H        0.00000000       0.00000000      14.58243212        1       1.00000000       0.00000000       0.00000000       0.00000000       0.00000000       0.00000000       0.00000000
H        2.80615512       0.00000000      14.58243212        1       1.00000000       0.00000000       0.00000000       0.00000000       0.00000000       0.00000000       0.00000000
H        1.40307756       2.43020162      14.58243212        1       1.00000000       0.00000000       0.00000000       0.00000000       0.00000000       0.00000000       0.00000000
H        4.20923268       2.43020162      14.58243212        1       1.00000000       0.00000000       0.00000000       0.00000000       0.00000000       0.00000000       0.00000000
H        1.40298967       4.06651449       7.78312650        0       1.00000000      -0.00018715       0.00029366      -0.00015410       0.00054955       0.00001765      -0.00045410
H        2.80401342       3.24096506       5.56389741        0       1.00000000       0.00014718      -0.00020609       0.00012136      -0.00004158      -0.00009877       0.00008091
H        0.00218074       3.24068745       5.56394070        0       1.00000000       0.00002628      -0.00027040      -0.00007991       0.00012631       0.00051427       0.00005140
H        4.20929743       4.04251355       7.80013749        0       1.00000000      -0.00006485      -0.00017864       0.00009504      -0.00044418       0.00074247       0.00044313
H        0.00751168       1.61644167       7.78125288        0       1.00000000      -0.00019154      -0.00043366      -0.00007837      -0.00028702      -0.00048598       0.00026654
H        2.79849356       1.61642196       7.78099529        0       1.00000000       0.00014805      -0.00026787       0.00012353      -0.00024505      -0.00032220      -0.00028196
H        4.20919977       0.80631359       5.56570929        0       1.00000000      -0.00021166      -0.00005305       0.00020547       0.00009693       0.00009971      -0.00002042
19
Lattice="5.612310241546866 0.0 0.0 0.0 4.860403243099165 0.0 0.0 0.0 24.582432123328676" Properties=species:S:1:pos:R:3:tags:I:1:masses:R:1:momenta:R:3:forces:R:3 KEmax=24.559391461069055 iter=59835 volume=670.5618179858607 ns_energy=-12.535374708977672 last_walked_iter_clone=59805 energy=-12.535374843776491 stress="0.00871135780356568 1.6209173927882628e-08 -2.0116351546690492e-07 1.6209173927882628e-08 0.00874835644406568 3.2352081759604313e-06 -2.0116351546690492e-07 3.2352081759604313e-06 0.0042315214454803005" pbc="T T T"
H        1.40307756       0.81006721      10.00000000        3       1.00000000       0.00000000       0.00000000       0.00000000       0.00000000       0.00000000       0.00000000
H        4.20923268       0.81006721      10.00000000        3       1.00000000       0.00000000       0.00000000       0.00000000       0.00000000       0.00000000       0.00000000
H        0.00000000       3.24026883      10.00000000        3       1.00000000       0.00000000       0.00000000       0.00000000       0.00000000       0.00000000       0.00000000
H        2.80615512       3.24026883      10.00000000        3       1.00000000       0.00000000       0.00000000       0.00000000       0.00000000       0.00000000       0.00000000
H        0.00000000       1.62013441      12.29121606        2       1.00000000       0.00000000       0.00000000       0.00000000       0.00000000       0.00000000       0.00000000
H        2.80615512       1.62013441      12.29121606        2       1.00000000       0.00000000       0.00000000       0.00000000       0.00000000       0.00000000       0.00000000
H        1.40307756       4.05033604      12.29121606        2       1.00000000       0.00000000       0.00000000       0.00000000       0.00000000       0.00000000       0.00000000
H        4.20923268       4.05033604      12.29121606        2       1.00000000       0.00000000       0.00000000       0.00000000       0.00000000       0.00000000       0.00000000