19
Lattice="5.612310241546866 0.0 0.0 0.0 4.860403243099165 0.0 0.0 0.0 24.582432123328676" Properties=species:S:1:pos:R:3:tags:I:1:masses:R:1:momenta:R:3:forces:R:3 KEmax=24.559391461069055 iter=119999 volume=670.5618179858607 ns_energy=-12.535375278370795 last_walked_iter_clone=119858 energy=-12.535375278324608 stress="0.008711102570442969 -4.784186936287535e-09 -4.4610553317840565e-09 -4.784186936287535e-09 0.008748283786488995 2.6728600240570516e-09 -4.4610553317840565e-09 2.6728600240570516e-09 0.004230898134196132" pbc="T T T"
H        1.40307756       0.81006721      10.00000000        3       1.00000000       0.00000000       0.00000000       0.00000000       0.00000000       0.00000000       0.00000000
H        4.20923268       0.81006721      10.00000000        3       1.00000000       0.00000000       0.00000000       0.00000000       0.00000000       0.00000000       0.00000000
H        0.00000000       3.24026883      10.00000000        3       1.00000000       0.00000000       0.00000000       0.00000000       0.00000000       0.00000000       0.00000000
H        2.80615512       3.24026883      10.00000000        3       1.00000000       0.00000000       0.00000000       0.00000000       0.00000000       0.00000000       0.00000000
H        0.00000000       1.62013441      12.29121606        2       1.00000000       0.00000000       0.00000000       0.00000000       0.00000000       0.00000000       0.00000000
H        2.80615512       1.62013441      12.29121606        2       1.00000000       0.00000000       0.00000000       0.00000000       0.00000000       0.00000000       0.00000000
H        1.40307756       4.05033604      12.29121606        2       1.00000000       0.00000000       0.00000000       0.00000000       0.00000000       0.00000000       0.00000000
H        4.20923268       4.05033604      12.29121606        2       1.00000000       0.00000000       0.00000000       0.00000000       0.00000000       0.00000000       0.00000000
H        0.00000000       0.00000000      14.58243212        1       1.00000000       0.00000000       0.00000000       0.00000000       0.00000000       0.00000000       0.00000000
H        2.80615512       0.00000000      14.58243212        1       1.00000000       0.00000000       0.00000000       0.00000000       0.00000000       0.00000000       0.00000000
H        1.40307756       2.43020162      14.58243212        1       1.00000000       0.00000000       0.00000000       0.00000000       0.00000000       0.00000000       0.00000000
H        4.20923268       2.43020162      14.58243212        1       1.00000000       0.00000000       0.00000000       0.00000000       0.00000000       0.00000000       0.00000000
H        1.40307764       4.06638349       7.78314782        0       1.00000000       0.00000053       0.00000083      -0.00000011       0.00000242      -0.00001278      -0.00000877
H        2.80400605       3.24074362       5.56382847        0       1.00000000       0.00000035       0.00000123      -0.00000032      -0.00000441       0.00000109       0.00000327
H        0.00215235       3.24074428       5.56382776        0       1.00000000      -0.00000078       0.00000084       0.00000180       0.00000160       0.00000059       0.00000650
H        4.20923301       4.04233655       7.80012826        0       1.00000000       0.00000104       0.00000047       0.00000000       0.00000094      -0.00001160       0.00000303
H        0.00758660       1.61629999       7.78115214        0       1.00000000      -0.00000006      -0.00000004       0.00000003       0.00000043       0.00001215      -0.00000191
H        2.79857029       1.61629923       7.78115201        0       1.00000000      -0.00000069      -0.00000060      -0.00000024      -0.00000022       0.00000984      -0.00000321
H        4.20923442       0.80629883       5.56558896        0       1.00000000       0.00000014       0.00000061       0.00000071       0.00000035      -0.00000040      -0.00000256
19
Lattice="5.612310241546866 0.0 0.0 0.0 4.860403243099165 0.0 0.0 0.0 24.582432123328676" Properties=species:S:1:pos:R:3:tags:I:1:masses:R:1:momenta:R:3:forces:R:3 KEmax=24.559391461069055 iter=119999 volume=670.5618179858607 ns_energy=-12.535375278370783 last_walked_iter_clone=118651 energy=-12.535375278324608 stress="0.008711102570442969 -4.784186936287535e-09 -4.4610553317840565e-09 -4.784186936287535e-09 0.008748283786488995 2.6728600240570516e-09 -4.4610553317840565e-09 2.6728600240570516e-09 0.004230898134196132" pbc="T T T"
H        1.40307756       0.81006721      10.00000000        3       1.00000000       0.00000000       0.00000000       0.00000000       0.00000000       0.00000000       0.00000000
H        4.20923268       0.81006721      10.00000000        3       1.00000000       0.00000000       0.00000000       0.00000000       0.00000000       0.00000000       0.00000000
H        0.00000000       3.24026883      10.00000000        3       1.00000000       0.00000000       0.00000000       0.00000000       0.00000000       0.00000000       0.00000000
H        2.80615512       3.24026883      10.00000000        3       1.00000000       0.00000000       0.00000000       0.00000000       0.00000000       0.00000000       0.00000000
H        0.00000000       1.62013441      12.29121606        2       1.00000000       0.00000000       0.00000000       0.00000000       0.00000000       0.00000000       0.00000000
H        2.80615512       1.62013441      12.29121606        2       1.00000000       0.00000000       0.00000000       0.00000000       0.00000000       0.00000000       0.00000000
H        1.40307756       4.05033604      12.29121606        2       1.00000000       0.00000000       0.00000000       0.00000000       0.00000000       0.00000000       0.00000000
H        4.20923268       4.05033604      12.29121606        2       1.00000000       0.00000000       0.00000000       0.00000000       0.00000000       0.00000000       0.00000000
H        0.00000000       0.00000000      14.58243212        1       1.00000000       0.00000000       0.00000000       0.00000000       0.00000000       0.00000000       0.00000000
H        2.80615512       0.00000000      14.58243212        1       1.00000000       0.00000000       0.00000000       0.00000000       0.00000000       0.00000000       0.00000000
H        1.40307756       2.43020162      14.58243212        1       1.00000000       0.00000000       0.00000000       0.00000000       0.00000000       0.00000000       0.00000000
H        4.20923268       2.43020162      14.58243212        1       1.00000000       0.00000000       0.00000000       0.00000000       0.00000000       0.00000000       0.00000000
H        1.40307745       4.06638389       7.78314740        0       1.00000000      -0.00000004       0.00000035      -0.00000005       0.00000242      -0.00001278      -0.00000877
H        2.80400482       3.24074361       5.56382917        0       1.00000000      -0.00000058      -0.00000146      -0.00000032      -0.00000441       0.00000109       0.00000327
H        0.00215039       3.24074477       5.56382862        0       1.00000000       0.00000005       0.00000044       0.00000011       0.00000160       0.00000059       0.00000650
H        4.20923226       4.04233814       7.80012861        0       1.00000000      -0.00000062       0.00000077      -0.00000046       0.00000094      -0.00001160       0.00000303
H        0.00758521       1.61629947       7.78115093        0       1.00000000      -0.00000006      -0.00000051      -0.00000025       0.00000043       0.00001215      -0.00000191
H        2.79856906       1.61630003       7.78115193        0       1.00000000       0.00000072       0.00000019       0.00000001      -0.00000022       0.00000984      -0.00000321
H        4.20923230       0.80629924       5.56558808        0       1.00000000       0.00000008      -0.00000134       0.00000056       0.00000035      -0.00000040      -0.00000256
19
Lattice="5.612310241546866 0.0 0.0 0.0 4.860403243099165 0.0 0.0 0.0 24.582432123328676" Properties=species:S:1:pos:R:3:tags:I:1:masses:R:1:momenta:R:3:forces:R:3 KEmax=24.559391461069055 iter=119999 volume=670.5618179858607 ns_energy=-12.535375278370871 last_walked_iter_clone=119862 energy=-12.535375278324608 stress="0.008711102570442969 -4.784186936287535e-09 -4.4610553317840565e-09 -4.784186936287535e-09 0.008748283786488995 2.6728600240570516e-09 -4.4610553317840565e-09 2.6728600240570516e-09 0.004230898134196132" pbc="T T T"
H        1.40307756       0.81006721      10.00000000        3       1.00000000       0.00000000       0.00000000       0.00000000       0.00000000       0.00000000       0.00000000
H        4.20923268       0.81006721      10.00000000        3       1.00000000       0.00000000       0.00000000       0.00000000       0.00000000       0.00000000       0.00000000
H        0.00000000       3.24026883      10.00000000        3       1.00000000       0.00000000       0.00000000       0.00000000       0.00000000       0.00000000       0.00000000
H        2.80615512       3.24026883      10.00000000        3       1.00000000       0.00000000       0.00000000       0.00000000       0.00000000       0.00000000       0.00000000
H        0.00000000       1.62013441      12.29121606        2       1.00000000       0.00000000       0.00000000       0.00000000       0.00000000       0.00000000       0.00000000
H        2.80615512       1.62013441      12.29121606        2       1.00000000       0.00000000       0.00000000       0.00000000       0.00000000       0.00000000       0.00000000
H        1.40307756       4.05033604      12.29121606        2       1.00000000       0.00000000       0.00000000       0.00000000       0.00000000       0.00000000       0.00000000
H        4.20923268       4.05033604      12.29121606        2       1.00000000       0.00000000       0.00000000       0.00000000       0.00000000       0.00000000       0.00000000
H        0.00000000       0.00000000      14.58243212        1       1.00000000       0.00000000       0.00000000       0.00000000       0.00000000       0.00000000       0.00000000
H        2.80615512       0.00000000      14.58243212        1       1.00000000       0.00000000       0.00000000       0.00000000       0.00000000       0.00000000       0.00000000
H        1.40307756       2.43020162      14.58243212        1       1.00000000       0.00000000       0.00000000       0.00000000       0.00000000       0.00000000       0.00000000
H        4.20923268       2.43020162      14.58243212        1       1.00000000       0.00000000       0.00000000       0.00000000       0.00000000       0.00000000       0.00000000
H        1.40307722       4.06638359       7.78314753        0       1.00000000       0.00000052      -0.00000068       0.00000018       0.00000242      -0.00001278      -0.00000877
H        2.80400461       3.24074410       5.56382866        0       1.00000000      -0.00000050       0.00000051      -0.00000092      -0.00000441       0.00000109       0.00000327
H        0.00215115       3.24074400       5.56382771        0       1.00000000      -0.00000026      -0.00000005       0.00000058       0.00000160       0.00000059       0.00000650
H        4.20923257       4.04233680       7.80012808        0       1.00000000      -0.00000061      -0.00000012      -0.00000124       0.00000094      -0.00001160       0.00000303
H        0.00758573       1.61630009       7.78115190        0       1.00000000       0.00000051      -0.00000192      -0.00000004       0.00000043       0.00001215      -0.00000191
H        2.79856936       1.61630029       7.78115209        0       1.00000000       0.00000148       0.00000007       0.00000056      -0.00000022       0.00000984      -0.00000321
H        4.20923248       0.80629966       5.56558822        0       1.00000000       0.00000054       0.00000094       0.00000053       0.00000035      -0.00000040      -0.00000256
19
Lattice="5.612310241546866 0.0 0.0 0.0 4.860403243099165 0.0 0.0 0.0 24.582432123328676" Properties=species:S:1:pos:R:3:tags:I:1:masses:R:1:momenta:R:3:forces:R:3 KEmax=24.559391461069055 iter=119999 volume=670.5618179858607 ns_energy=-12.535375278370829 last_walked_iter_clone=118731 energy=-12.535375278324608 stress="0.008711102570442969 -4.784186936287535e-09 -4.4610553317840565e-09 -4.784186936287535e-09 0.008748283786488995 2.6728600240570516e-09 -4.4610553317840565e-09 2.6728600240570516e-09 0.004230898134196132" pbc="T T T"
H        1.40307756       0.81006721      10.00000000        3       1.00000000       0.00000000       0.00000000       0.00000000       0.00000000       0.00000000       0.00000000
H        4.20923268       0.81006721      10.00000000        3       1.00000000       0.00000000       0.00000000       0.00000000       0.00000000       0.00000000       0.00000000
H        0.00000000       3.24026883      10.00000000        3       1.00000000       0.00000000       0.00000000       0.00000000       0.00000000       0.00000000       0.00000000
H        2.80615512       3.24026883      10.00000000        3       1.00000000       0.00000000       0.00000000       0.00000000       0.00000000       0.00000000       0.00000000
H        0.00000000       1.62013441      12.29121606        2       1.00000000       0.00000000       0.00000000       0.00000000       0.00000000       0.00000000       0.00000000
H        2.80615512       1.62013441      12.29121606        2       1.00000000       0.00000000       0.00000000       0.00000000       0.00000000       0.00000000       0.00000000
H        1.40307756       4.05033604      12.29121606        2       1.00000000       0.00000000       0.00000000       0.00000000       0.00000000       0.00000000       0.00000000
H        4.20923268       4.05033604      12.29121606        2       1.00000000       0.00000000       0.00000000       0.00000000       0.00000000       0.00000000       0.00000000
H        0.00000000       0.00000000      14.58243212        1       1.00000000       0.00000000       0.00000000       0.00000000       0.00000000       0.00000000       0.00000000
H        2.80615512       0.00000000      14.58243212        1       1.00000000       0.00000000       0.00000000       0.00000000       0.00000000       0.00000000       0.00000000
H        1.40307756       2.43020162      14.58243212        1       1.00000000       0.00000000       0.00000000       0.00000000       0.00000000       0.00000000       0.00000000
H        4.20923268       2.43020162      14.58243212        1       1.00000000       0.00000000       0.00000000       0.00000000       0.00000000       0.00000000       0.00000000
H        1.40307696       4.06638289       7.78314711        0       1.00000000       0.00000020      -0.00000013      -0.00000002       0.00000242      -0.00001278      -0.00000877
H        2.80400508       3.24074322       5.56382785        0       1.00000000       0.00000021       0.00000079      -0.00000077      -0.00000441       0.00000109       0.00000327
H        0.00215063       3.24074390       5.56382755        0       1.00000000       0.00000005       0.00000016      -0.00000167       0.00000160       0.00000059       0.00000650
H        4.20923210       4.04233673       7.80012776        0       1.00000000       0.00000041      -0.00000091       0.00000040       0.00000094      -0.00001160       0.00000303
H        0.00758448       1.61629903       7.78115166        0       1.00000000       0.00000140      -0.00000044      -0.00000099       0.00000043       0.00001215      -0.00000191
H        2.79856881       1.61629879       7.78115162        0       1.00000000      -0.00000041       0.00000046       0.00000112      -0.00000022       0.00000984      -0.00000321
H        4.20923152       0.80629832       5.56558770        0       1.00000000      -0.00000064      -0.00000039      -0.00000045       0.00000035      -0.00000040      -0.00000256
19
Lattice="5.612310241546866 0.0 0.0 0.0 4.860403243099165 0.0 0.0 0.0 24.582432123328676" Properties=species:S:1:pos:R:3:tags:I:1:masses:R:1:momenta:R:3:forces:R:3 KEmax=24.559391461069055 iter=119999 volume=670.5618179858607 ns_energy=-12.535375278370738 last_walked_iter_clone=117676 energy=-12.535375278324608 stress="0.008711102570442969 -4.784186936287535e-09 -4.4610553317840565e-09 -4.784186936287535e-09 0.008748283786488995 2.6728600240570516e-09 -4.4610553317840565e-09 2.6728600240570516e-09 0.004230898134196132" pbc="T T T"
H        1.40307756       0.81006721      10.00000000        3       1.00000000       0.00000000       0.00000000       0.00000000       0.00000000       0.00000000       0.00000000
H        4.20923268       0.81006721      10.00000000        3       1.00000000       0.00000000       0.00000000       0.00000000       0.00000000       0.00000000       0.00000000
H        0.00000000       3.24026883      10.00000000        3       1.00000000       0.00000000       0.00000000       0.00000000       0.00000000       0.00000000       0.00000000
H        2.80615512       3.24026883      10.00000000        3       1.00000000       0.00000000       0.00000000       0.00000000       0.00000000       0.00000000       0.00000000
H        0.00000000       1.62013441      12.29121606        2       1.00000000       0.00000000       0.00000000       0.00000000       0.00000000       0.00000000       0.00000000
H        2.80615512       1.62013441      12.29121606        2       1.00000000       0.00000000       0.00000000       0.00000000       0.00000000       0.00000000       0.00000000
H        1.40307756       4.05033604      12.29121606        2       1.00000000       0.00000000       0.00000000       0.00000000       0.00000000       0.00000000       0.00000000
H        4.20923268       4.05033604      12.29121606        2       1.00000000       0.00000000       0.00000000       0.00000000       0.00000000       0.00000000       0.00000000
H        0.00000000       0.00000000      14.58243212        1       1.00000000       0.00000000       0.00000000       0.00000000       0.00000000       0.00000000       0.00000000
H        2.80615512       0.00000000      14.58243212        1       1.00000000       0.00000000       0.00000000       0.00000000       0.00000000       0.00000000       0.00000000
H        1.40307756       2.43020162      14.58243212        1       1.00000000       0.00000000       0.00000000       0.00000000       0.00000000       0.00000000       0.00000000
H        4.20923268       2.43020162      14.58243212        1       1.00000000       0.00000000       0.00000000       0.00000000       0.00000000       0.00000000       0.00000000
H        1.40307769       4.06638371       7.78314758        0       1.00000000       0.00000073       0.00000052       0.00000172       0.00000242      -0.00001278      -0.00000877
H        2.80400585       3.24074440       5.56382850        0       1.00000000      -0.00000141       0.00000080      -0.00000007      -0.00000441       0.00000109       0.00000327
H        0.00215219       3.24074341       5.56382854        0       1.00000000      -0.00000016      -0.00000045      -0.00000007       0.00000160       0.00000059       0.00000650
H        4.20923331       4.04233666       7.80012857        0       1.00000000       0.00000087       0.00000011      -0.00000041       0.00000094      -0.00001160       0.00000303
H        0.00758644       1.61629922       7.78115238        0       1.00000000       0.00000007      -0.00000028      -0.00000069       0.00000043       0.00001215      -0.00000191
H        2.79857004       1.61629941       7.78115168        0       1.00000000      -0.00000024      -0.00000036      -0.00000163      -0.00000022       0.00000984      -0.00000321
H        4.20923438       0.80629866       5.56558861        0       1.00000000      -0.00000111       0.00000051      -0.00000002       0.00000035      -0.00000040      -0.00000256
19
Lattice="5.612310241546866 0.0 0.0 0.0 4.860403243099165 0.0 0.0 0.0 24.582432123328676" Properties=species:S:1:pos:R:3:tags:I:1:masses:R:1:momenta:R:3:forces:R:3 KEmax=24.559391461069055 iter=119999 volume=670.5618179858607 ns_energy=-12.535375278370836 last_walked_iter_clone=117693 energy=-12.535375278324608 stress="0.008711102570442969 -4.784186936287535e-09 -4.4610553317840565e-09 -4.784186936287535e-09 0.008748283786488995 2.6728600240570516e-09 -4.4610553317840565e-09 2.6728600240570516e-09 0.004230898134196132" pbc="T T T"
H        1.40307756       0.81006721      10.00000000        3       1.00000000       0.00000000       0.00000000       0.00000000       0.00000000       0.00000000       0.00000000
H        4.20923268       0.81006721      10.00000000        3       1.00000000       0.00000000       0.00000000       0.00000000       0.00000000       0.00000000       0.00000000
H        0.00000000       3.24026883      10.00000000        3       1.00000000       0.00000000       0.00000000       0.00000000       0.00000000       0.00000000       0.00000000
H        2.80615512       3.24026883      10.00000000        3       1.00000000       0.00000000       0.00000000       0.00000000       0.00000000       0.00000000       0.00000000
H        0.00000000       1.62013441      12.29121606        2       1.00000000       0.00000000       0.00000000       0.00000000       0.00000000       0.00000000       0.00000000
H        2.80615512       1.62013441      12.29121606        2       1.00000000       0.00000000       0.00000000       0.00000000       0.00000000       0.00000000       0.00000000
H        1.40307756       4.05033604      12.29121606        2       1.00000000       0.00000000       0.00000000       0.00000000       0.00000000       0.00000000       0.00000000
H        4.20923268       4.05033604      12.29121606        2       1.00000000       0.00000000       0.00000000       0.00000000       0.00000000       0.00000000       0.00000000
H        0.00000000       0.00000000      14.58243212        1       1.00000000       0.00000000       0.00000000       0.00000000       0.00000000       0.00000000       0.00000000
H        2.80615512       0.00000000      14.58243212        1       1.00000000       0.00000000       0.00000000       0.00000000       0.00000000       0.00000000       0.00000000
H        1.40307756       2.43020162      14.58243212        1       1.00000000       0.00000000       0.00000000       0.00000000       0.00000000       0.00000000       0.00000000
H        4.20923268       2.43020162      14.58243212        1       1.00000000       0.00000000       0.00000000       0.00000000       0.00000000       0.00000000       0.00000000
H        1.40307812       4.06638321       7.78314761        0       1.00000000      -0.00000015       0.00000039      -0.00000135       0.00000242      -0.00001278      -0.00000877
H        2.80400481       3.24074343       5.56382833        0       1.00000000      -0.00000072      -0.00000090       0.00000062      -0.00000441       0.00000109       0.00000327
H        0.00215089       3.24074381       5.56382828        0       1.00000000       0.00000148       0.00000088      -0.00000073       0.00000160       0.00000059       0.00000650
H        4.20923255       4.04233715       7.80012813        0       1.00000000      -0.00000009      -0.00000061      -0.00000005       0.00000094      -0.00001160       0.00000303
H        0.00758552       1.61629917       7.78115218        0       1.00000000      -0.00000134       0.00000084      -0.00000039       0.00000043       0.00001215      -0.00000191
H        2.79856950       1.61629971       7.78115192        0       1.00000000       0.00000052       0.00000026      -0.00000129      -0.00000022       0.00000984      -0.00000321
H        4.20923246       0.80629815       5.56558751        0       1.00000000       0.00000095       0.00000040      -0.00000013       0.00000035      -0.00000040      -0.00000256
19
Lattice="5.612310241546866 0.0 0.0 0.0 4.860403243099165 0.0 0.0 0.0 24.582432123328676" Properties=species:S:1:pos:R:3:tags:I:1:masses:R:1:momenta:R:3:forces:R:3 KEmax=24.559391461069055 iter=119999 volume=670.5618179858607 ns_energy=-12.535375278370823 last_walked_iter_clone=118740 energy=-12.535375278324608 stress="0.008711102570442969 -4.784186936287535e-09 -4.4610553317840565e-09 -4.784186936287535e-09 0.008748283786488995 2.6728600240570516e-09 -4.4610553317840565e-09 2.6728600240570516e-09 0.004230898134196132" pbc="T T T"
H        1.40307756       0.81006721      10.00000000        3       1.00000000       0.00000000       0.00000000       0.00000000       0.00000000       0.00000000       0.00000000
H        4.20923268       0.81006721      10.00000000        3       1.00000000       0.00000000       0.00000000       0.00000000       0.00000000       0.00000000       0.00000000
H        0.00000000       3.24026883      10.00000000        3       1.00000000       0.00000000       0.00000000       0.00000000       0.00000000       0.00000000       0.00000000
H        2.80615512       3.24026883      10.00000000        3       1.00000000       0.00000000       0.00000000       0.00000000       0.00000000       0.00000000       0.00000000
H        0.00000000       1.62013441      12.29121606        2       1.00000000       0.00000000       0.00000000       0.00000000       0.00000000       0.00000000       0.00000000
H        2.80615512       1.62013441      12.29121606        2       1.00000000       0.00000000       0.00000000       0.00000000       0.00000000       0.00000000       0.00000000
H        1.40307756       4.05033604      12.29121606        2       1.00000000       0.00000000       0.00000000       0.00000000       0.00000000       0.00000000       0.00000000
H        4.20923268       4.05033604      12.29121606        2       1.00000000       0.00000000       0.00000000       0.00000000       0.00000000       0.00000000       0.00000000
H        0.00000000       0.00000000      14.58243212        1       1.00000000       0.00000000       0.00000000       0.00000000       0.00000000       0.00000000       0.00000000
H        2.80615512       0.00000000      14.58243212        1       1.00000000       0.00000000       0.00000000       0.00000000       0.00000000       0.00000000       0.00000000
H        1.40307756       2.43020162      14.58243212        1       1.00000000       0.00000000       0.00000000       0.00000000       0.00000000       0.00000000       0.00000000
H        4.20923268       2.43020162      14.58243212        1       1.00000000       0.00000000       0.00000000       0.00000000       0.00000000       0.00000000       0.00000000
H        1.40307734       4.06638251       7.78314785        0       1.00000000       0.00000061      -0.00000014      -0.00000021       0.00000242      -0.00001278      -0.00000877
H        2.80400463       3.24074297       5.56382821        0       1.00000000       0.00000197       0.00000016      -0.00000040      -0.00000441       0.00000109       0.00000327
H        0.00215044       3.24074391       5.56382876        0       1.00000000      -0.00000057       0.00000042      -0.00000096       0.00000160       0.00000059       0.00000650
H        4.20923259       4.04233705       7.80012812        0       1.00000000       0.00000062      -0.00000039       0.00000023       0.00000094      -0.00001160       0.00000303
H        0.00758574       1.61629910       7.78115172        0       1.00000000       0.00000045      -0.00000120      -0.00000002       0.00000043       0.00001215      -0.00000191
H        2.79856983       1.61629923       7.78115222        0       1.00000000      -0.00000068      -0.00000034      -0.00000022      -0.00000022       0.00000984      -0.00000321
H        4.20923184       0.80629901       5.56558793        0       1.00000000      -0.00000029      -0.00000046       0.00000201       0.00000035      -0.00000040      -0.00000256
19
Lattice="5.612310241546866 0.0 0.0 0.0 4.860403243099165 0.0 0.0 0.0 24.582432123328676" Properties=species:S:1:pos:R:3:tags:I:1:masses:R:1:momenta:R:3:forces:R:3 KEmax=24.559391461069055 iter=119999 volume=670.5618179858607 ns_energy=-12.535375278370791 last_walked_iter_clone=118354 energy=-12.535375278324608 stress="0.008711102570442969 -4.784186936287535e-09 -4.4610553317840565e-09 -4.784186936287535e-09 0.008748283786488995 2.6728600240570516e-09 -4.4610553317840565e-09 2.6728600240570516e-09 0.004230898134196132" pbc="T T T"
H        1.40307756       0.81006721      10.00000000        3       1.00000000       0.00000000       0.00000000       0.00000000       0.00000000       0.00000000       0.00000000
H        4.20923268       0.81006721      10.00000000        3       1.00000000       0.00000000       0.00000000       0.00000000       0.00000000       0.00000000       0.00000000
H        0.00000000       3.24026883      10.00000000        3       1.00000000       0.00000000       0.00000000       0.00000000       0.00000000       0.00000000       0.00000000
H        2.80615512       3.24026883      10.00000000        3       1.00000000       0.00000000       0.00000000       0.00000000       0.00000000       0.00000000       0.00000000
H        0.00000000       1.62013441      12.29121606        2       1.00000000       0.00000000       0.00000000       0.00000000       0.00000000       0.00000000       0.00000000
H        2.80615512       1.62013441      12.29121606        2       1.00000000       0.00000000       0.00000000       0.00000000       0.00000000       0.00000000       0.00000000
H        1.40307756       4.05033604      12.29121606        2       1.00000000       0.00000000       0.00000000       0.00000000       0.00000000       0.00000000       0.00000000
H        4.20923268       4.05033604      12.29121606        2       1.00000000       0.00000000       0.00000000       0.00000000       0.00000000       0.00000000       0.00000000