19
Lattice="5.612310241546866 0.0 0.0 0.0 4.860403243099165 0.0 0.0 0.0 24.582432123328676" Properties=species:S:1:pos:R:3:tags:I:1:masses:R:1:momenta:R:3:forces:R:3 KEmax=24.559391461069055 iter=90485 volume=670.5618179858607 ns_energy=-12.535375278195685 last_walked_iter_clone=90349 energy=-12.535375278304777 stress="0.008711114120862114 -1.35714735393295e-09 -7.112012456996555e-09 -1.35714735393295e-09 0.008748311521201306 3.108752167075457e-08 -7.112012456996555e-09 3.108752167075457e-08 0.0042309366161279545" pbc="T T T"
H        1.40307756       0.81006721      10.00000000        3       1.00000000       0.00000000       0.00000000       0.00000000       0.00000000       0.00000000       0.00000000
H        4.20923268       0.81006721      10.00000000        3       1.00000000       0.00000000       0.00000000       0.00000000       0.00000000       0.00000000       0.00000000
H        0.00000000       3.24026883      10.00000000        3       1.00000000       0.00000000       0.00000000       0.00000000       0.00000000       0.00000000       0.00000000
H        2.80615512       3.24026883      10.00000000        3       1.00000000       0.00000000       0.00000000       0.00000000       0.00000000       0.00000000       0.00000000
H        0.00000000       1.62013441      12.29121606        2       1.00000000       0.00000000       0.00000000       0.00000000       0.00000000       0.00000000       0.00000000
H        2.80615512       1.62013441      12.29121606        2       1.00000000       0.00000000       0.00000000       0.00000000       0.00000000       0.00000000       0.00000000
H        1.40307756       4.05033604      12.29121606        2       1.00000000       0.00000000       0.00000000       0.00000000       0.00000000       0.00000000       0.00000000
H        4.20923268       4.05033604      12.29121606        2       1.00000000       0.00000000       0.00000000       0.00000000       0.00000000       0.00000000       0.00000000
H        0.00000000       0.00000000      14.58243212        1       1.00000000       0.00000000       0.00000000       0.00000000       0.00000000       0.00000000       0.00000000
H        2.80615512       0.00000000      14.58243212        1       1.00000000       0.00000000       0.00000000       0.00000000       0.00000000       0.00000000       0.00000000
H        1.40307756       2.43020162      14.58243212        1       1.00000000       0.00000000       0.00000000       0.00000000       0.00000000       0.00000000       0.00000000
H        4.20923268       2.43020162      14.58243212        1       1.00000000       0.00000000       0.00000000       0.00000000       0.00000000       0.00000000       0.00000000
H        1.40307760       4.06638351       7.78314542        0       1.00000000       0.00000110      -0.00000101      -0.00000255      -0.00000607       0.00000762      -0.00000323
H        2.80400108       3.24074641       5.56382671        0       1.00000000      -0.00000039       0.00000136      -0.00000171       0.00000793      -0.00000359       0.00000083
H        0.00214639       3.24074172       5.56382963        0       1.00000000       0.00000106      -0.00000028       0.00000563      -0.00000490       0.00000204       0.00000106
H        4.20923020       4.04233778       7.80013082        0       1.00000000       0.00000067       0.00000175       0.00000145      -0.00000019      -0.00000507      -0.00000306
H        0.00758607       1.61629912       7.78115229        0       1.00000000      -0.00000275      -0.00000078       0.00000248       0.00000053      -0.00000733      -0.00000016
H        2.79856643       1.61630134       7.78115126        0       1.00000000       0.00000107      -0.00000268      -0.00000268       0.00000083       0.00000381       0.00000118
H        4.20922901       0.80630030       5.56558642        0       1.00000000       0.00000649       0.00000506       0.00000640      -0.00000165       0.00000645       0.00000842
19
Lattice="5.612310241546866 0.0 0.0 0.0 4.860403243099165 0.0 0.0 0.0 24.582432123328676" Properties=species:S:1:pos:R:3:tags:I:1:masses:R:1:momenta:R:3:forces:R:3 KEmax=24.559391461069055 iter=90485 volume=670.5618179858607 ns_energy=-12.535375278203553 last_walked_iter_clone=90352 energy=-12.535375278304777 stress="0.008711114120862114 -1.35714735393295e-09 -7.112012456996555e-09 -1.35714735393295e-09 0.008748311521201306 3.108752167075457e-08 -7.112012456996555e-09 3.108752167075457e-08 0.0042309366161279545" pbc="T T T"
H        1.40307756       0.81006721      10.00000000        3       1.00000000       0.00000000       0.00000000       0.00000000       0.00000000       0.00000000       0.00000000
H        4.20923268       0.81006721      10.00000000        3       1.00000000       0.00000000       0.00000000       0.00000000       0.00000000       0.00000000       0.00000000
H        0.00000000       3.24026883      10.00000000        3       1.00000000       0.00000000       0.00000000       0.00000000       0.00000000       0.00000000       0.00000000
H        2.80615512       3.24026883      10.00000000        3       1.00000000       0.00000000       0.00000000       0.00000000       0.00000000       0.00000000       0.00000000
H        0.00000000       1.62013441      12.29121606        2       1.00000000       0.00000000       0.00000000       0.00000000       0.00000000       0.00000000       0.00000000
H        2.80615512       1.62013441      12.29121606        2       1.00000000       0.00000000       0.00000000       0.00000000       0.00000000       0.00000000       0.00000000
H        1.40307756       4.05033604      12.29121606        2       1.00000000       0.00000000       0.00000000       0.00000000       0.00000000       0.00000000       0.00000000
H        4.20923268       4.05033604      12.29121606        2       1.00000000       0.00000000       0.00000000       0.00000000       0.00000000       0.00000000       0.00000000
H        0.00000000       0.00000000      14.58243212        1       1.00000000       0.00000000       0.00000000       0.00000000       0.00000000       0.00000000       0.00000000
H        2.80615512       0.00000000      14.58243212        1       1.00000000       0.00000000       0.00000000       0.00000000       0.00000000       0.00000000       0.00000000
H        1.40307756       2.43020162      14.58243212        1       1.00000000       0.00000000       0.00000000       0.00000000       0.00000000       0.00000000       0.00000000
H        4.20923268       2.43020162      14.58243212        1       1.00000000       0.00000000       0.00000000       0.00000000       0.00000000       0.00000000       0.00000000
H        1.40307661       4.06638186       7.78314874        0       1.00000000       0.00000349       0.00000330      -0.00000265      -0.00000607       0.00000762      -0.00000323
H        2.80400095       3.24073990       5.56383116        0       1.00000000      -0.00000107       0.00000390       0.00000430       0.00000793      -0.00000359       0.00000083
H        0.00214624       3.24074398       5.56382546        0       1.00000000       0.00000148       0.00000091      -0.00000179      -0.00000490       0.00000204       0.00000106
H        4.20923300       4.04233216       7.80013120        0       1.00000000      -0.00000561      -0.00000324       0.00000213      -0.00000019      -0.00000507      -0.00000306
H        0.00758662       1.61629946       7.78115017        0       1.00000000       0.00000211       0.00000321      -0.00000057       0.00000053      -0.00000733      -0.00000016
H        2.79856932       1.61629689       7.78115378        0       1.00000000      -0.00000300       0.00000272      -0.00000220       0.00000083       0.00000381       0.00000118
H        4.20922768       0.80629753       5.56559058        0       1.00000000      -0.00000116       0.00000304      -0.00000021      -0.00000165       0.00000645       0.00000842
19
Lattice="5.612310241546866 0.0 0.0 0.0 4.860403243099165 0.0 0.0 0.0 24.582432123328676" Properties=species:S:1:pos:R:3:tags:I:1:masses:R:1:momenta:R:3:forces:R:3 KEmax=24.559391461069055 iter=90485 volume=670.5618179858607 ns_energy=-12.535375278196936 last_walked_iter_clone=90478 energy=-12.535375278304777 stress="0.008711114120862114 -1.35714735393295e-09 -7.112012456996555e-09 -1.35714735393295e-09 0.008748311521201306 3.108752167075457e-08 -7.112012456996555e-09 3.108752167075457e-08 0.0042309366161279545" pbc="T T T"
H        1.40307756       0.81006721      10.00000000        3       1.00000000       0.00000000       0.00000000       0.00000000       0.00000000       0.00000000       0.00000000
H        4.20923268       0.81006721      10.00000000        3       1.00000000       0.00000000       0.00000000       0.00000000       0.00000000       0.00000000       0.00000000
H        0.00000000       3.24026883      10.00000000        3       1.00000000       0.00000000       0.00000000       0.00000000       0.00000000       0.00000000       0.00000000
H        2.80615512       3.24026883      10.00000000        3       1.00000000       0.00000000       0.00000000       0.00000000       0.00000000       0.00000000       0.00000000
H        0.00000000       1.62013441      12.29121606        2       1.00000000       0.00000000       0.00000000       0.00000000       0.00000000       0.00000000       0.00000000
H        2.80615512       1.62013441      12.29121606        2       1.00000000       0.00000000       0.00000000       0.00000000       0.00000000       0.00000000       0.00000000
H        1.40307756       4.05033604      12.29121606        2       1.00000000       0.00000000       0.00000000       0.00000000       0.00000000       0.00000000       0.00000000
H        4.20923268       4.05033604      12.29121606        2       1.00000000       0.00000000       0.00000000       0.00000000       0.00000000       0.00000000       0.00000000
H        0.00000000       0.00000000      14.58243212        1       1.00000000       0.00000000       0.00000000       0.00000000       0.00000000       0.00000000       0.00000000
H        2.80615512       0.00000000      14.58243212        1       1.00000000       0.00000000       0.00000000       0.00000000       0.00000000       0.00000000       0.00000000
H        1.40307756       2.43020162      14.58243212        1       1.00000000       0.00000000       0.00000000       0.00000000       0.00000000       0.00000000       0.00000000
H        4.20923268       2.43020162      14.58243212        1       1.00000000       0.00000000       0.00000000       0.00000000       0.00000000       0.00000000       0.00000000
H        1.40307579       4.06638582       7.78315014        0       1.00000000      -0.00000201       0.00000256      -0.00000267      -0.00000607       0.00000762      -0.00000323
H        2.80400450       3.24074136       5.56383223        0       1.00000000       0.00000524      -0.00000322      -0.00000177       0.00000793      -0.00000359       0.00000083
H        0.00214943       3.24074220       5.56382716        0       1.00000000       0.00000220      -0.00000207      -0.00000113      -0.00000490       0.00000204       0.00000106
H        4.20923010       4.04234120       7.80012857        0       1.00000000      -0.00000117      -0.00000219       0.00000154      -0.00000019      -0.00000507      -0.00000306
H        0.00758304       1.61630046       7.78115287        0       1.00000000       0.00000098       0.00000072       0.00000118       0.00000053      -0.00000733      -0.00000016
H        2.79856661       1.61629898       7.78115072        0       1.00000000      -0.00000184       0.00000344      -0.00000508       0.00000083       0.00000381       0.00000118
H        4.20923096       0.80629573       5.56558876        0       1.00000000       0.00000286       0.00000284      -0.00000049      -0.00000165       0.00000645       0.00000842
19
Lattice="5.612310241546866 0.0 0.0 0.0 4.860403243099165 0.0 0.0 0.0 24.582432123328676" Properties=species:S:1:pos:R:3:tags:I:1:masses:R:1:momenta:R:3:forces:R:3 KEmax=24.559391461069055 iter=90485 volume=670.5618179858607 ns_energy=-12.53537527819849 last_walked_iter_clone=90434 energy=-12.535375278304777 stress="0.008711114120862114 -1.35714735393295e-09 -7.112012456996555e-09 -1.35714735393295e-09 0.008748311521201306 3.108752167075457e-08 -7.112012456996555e-09 3.108752167075457e-08 0.0042309366161279545" pbc="T T T"
H        1.40307756       0.81006721      10.00000000        3       1.00000000       0.00000000       0.00000000       0.00000000       0.00000000       0.00000000       0.00000000
H        4.20923268       0.81006721      10.00000000        3       1.00000000       0.00000000       0.00000000       0.00000000       0.00000000       0.00000000       0.00000000
H        0.00000000       3.24026883      10.00000000        3       1.00000000       0.00000000       0.00000000       0.00000000       0.00000000       0.00000000       0.00000000
H        2.80615512       3.24026883      10.00000000        3       1.00000000       0.00000000       0.00000000       0.00000000       0.00000000       0.00000000       0.00000000
H        0.00000000       1.62013441      12.29121606        2       1.00000000       0.00000000       0.00000000       0.00000000       0.00000000       0.00000000       0.00000000
H        2.80615512       1.62013441      12.29121606        2       1.00000000       0.00000000       0.00000000       0.00000000       0.00000000       0.00000000       0.00000000
H        1.40307756       4.05033604      12.29121606        2       1.00000000       0.00000000       0.00000000       0.00000000       0.00000000       0.00000000       0.00000000
H        4.20923268       4.05033604      12.29121606        2       1.00000000       0.00000000       0.00000000       0.00000000       0.00000000       0.00000000       0.00000000
H        0.00000000       0.00000000      14.58243212        1       1.00000000       0.00000000       0.00000000       0.00000000       0.00000000       0.00000000       0.00000000
H        2.80615512       0.00000000      14.58243212        1       1.00000000       0.00000000       0.00000000       0.00000000       0.00000000       0.00000000       0.00000000
H        1.40307756       2.43020162      14.58243212        1       1.00000000       0.00000000       0.00000000       0.00000000       0.00000000       0.00000000       0.00000000
H        4.20923268       2.43020162      14.58243212        1       1.00000000       0.00000000       0.00000000       0.00000000       0.00000000       0.00000000       0.00000000
H        1.40308076       4.06638407       7.78314613        0       1.00000000       0.00000082      -0.00000066      -0.00000125      -0.00000607       0.00000762      -0.00000323
H        2.80400652       3.24074461       5.56382606        0       1.00000000      -0.00000448       0.00000526      -0.00000229       0.00000793      -0.00000359       0.00000083
H        0.00215312       3.24074543       5.56382562        0       1.00000000      -0.00000404       0.00000040      -0.00000014      -0.00000490       0.00000204       0.00000106
H        4.20923340       4.04233599       7.80012630        0       1.00000000      -0.00000563       0.00000161      -0.00000165      -0.00000019      -0.00000507      -0.00000306
H        0.00758471       1.61629875       7.78115113        0       1.00000000       0.00000006      -0.00000197       0.00000653       0.00000053      -0.00000733      -0.00000016
H        2.79857113       1.61630204       7.78115387        0       1.00000000      -0.00000210       0.00000272      -0.00000095       0.00000083       0.00000381       0.00000118
H        4.20923016       0.80630069       5.56558690        0       1.00000000       0.00000739       0.00000119      -0.00000093      -0.00000165       0.00000645       0.00000842
19
Lattice="5.612310241546866 0.0 0.0 0.0 4.860403243099165 0.0 0.0 0.0 24.582432123328676" Properties=species:S:1:pos:R:3:tags:I:1:masses:R:1:momenta:R:3:forces:R:3 KEmax=24.559391461069055 iter=90485 volume=670.5618179858607 ns_energy=-12.535375278195922 last_walked_iter_clone=90420 energy=-12.535375278304777 stress="0.008711114120862114 -1.35714735393295e-09 -7.112012456996555e-09 -1.35714735393295e-09 0.008748311521201306 3.108752167075457e-08 -7.112012456996555e-09 3.108752167075457e-08 0.0042309366161279545" pbc="T T T"
H        1.40307756       0.81006721      10.00000000        3       1.00000000       0.00000000       0.00000000       0.00000000       0.00000000       0.00000000       0.00000000
H        4.20923268       0.81006721      10.00000000        3       1.00000000       0.00000000       0.00000000       0.00000000       0.00000000       0.00000000       0.00000000
H        0.00000000       3.24026883      10.00000000        3       1.00000000       0.00000000       0.00000000       0.00000000       0.00000000       0.00000000       0.00000000
H        2.80615512       3.24026883      10.00000000        3       1.00000000       0.00000000       0.00000000       0.00000000       0.00000000       0.00000000       0.00000000
H        0.00000000       1.62013441      12.29121606        2       1.00000000       0.00000000       0.00000000       0.00000000       0.00000000       0.00000000       0.00000000
H        2.80615512       1.62013441      12.29121606        2       1.00000000       0.00000000       0.00000000       0.00000000       0.00000000       0.00000000       0.00000000
H        1.40307756       4.05033604      12.29121606        2       1.00000000       0.00000000       0.00000000       0.00000000       0.00000000       0.00000000       0.00000000
H        4.20923268       4.05033604      12.29121606        2       1.00000000       0.00000000       0.00000000       0.00000000       0.00000000       0.00000000       0.00000000
H        0.00000000       0.00000000      14.58243212        1       1.00000000       0.00000000       0.00000000       0.00000000       0.00000000       0.00000000       0.00000000
H        2.80615512       0.00000000      14.58243212        1       1.00000000       0.00000000       0.00000000       0.00000000       0.00000000       0.00000000       0.00000000
H        1.40307756       2.43020162      14.58243212        1       1.00000000       0.00000000       0.00000000       0.00000000       0.00000000       0.00000000       0.00000000
H        4.20923268       2.43020162      14.58243212        1       1.00000000       0.00000000       0.00000000       0.00000000       0.00000000       0.00000000       0.00000000
H        1.40307789       4.06638141       7.78314441        0       1.00000000       0.00000287      -0.00000482       0.00000347      -0.00000607       0.00000762      -0.00000323
H        2.80400902       3.24073676       5.56382363        0       1.00000000       0.00000142      -0.00000700       0.00000393       0.00000793      -0.00000359       0.00000083
H        0.00215236       3.24073888       5.56382682        0       1.00000000      -0.00000087      -0.00000451      -0.00000280      -0.00000490       0.00000204       0.00000106
H        4.20923116       4.04233517       7.80012800        0       1.00000000      -0.00000076       0.00000188      -0.00000033      -0.00000019      -0.00000507      -0.00000306
H        0.00758492       1.61629881       7.78115381        0       1.00000000       0.00000008      -0.00000243      -0.00000008       0.00000053      -0.00000733      -0.00000016
H        2.79856728       1.61629911       7.78114988        0       1.00000000      -0.00000117      -0.00000363      -0.00000413       0.00000083       0.00000381       0.00000118
H        4.20923556       0.80629503       5.56558966        0       1.00000000      -0.00000061      -0.00000551       0.00000057      -0.00000165       0.00000645       0.00000842
19
Lattice="5.612310241546866 0.0 0.0 0.0 4.860403243099165 0.0 0.0 0.0 24.582432123328676" Properties=species:S:1:pos:R:3:tags:I:1:masses:R:1:momenta:R:3:forces:R:3 KEmax=24.559391461069055 iter=90485 volume=670.5618179858607 ns_energy=-12.535375278198329 last_walked_iter_clone=90479 energy=-12.535375278304777 stress="0.008711114120862114 -1.35714735393295e-09 -7.112012456996555e-09 -1.35714735393295e-09 0.008748311521201306 3.108752167075457e-08 -7.112012456996555e-09 3.108752167075457e-08 0.0042309366161279545" pbc="T T T"
H        1.40307756       0.81006721      10.00000000        3       1.00000000       0.00000000       0.00000000       0.00000000       0.00000000       0.00000000       0.00000000
H        4.20923268       0.81006721      10.00000000        3       1.00000000       0.00000000       0.00000000       0.00000000       0.00000000       0.00000000       0.00000000
H        0.00000000       3.24026883      10.00000000        3       1.00000000       0.00000000       0.00000000       0.00000000       0.00000000       0.00000000       0.00000000
H        2.80615512       3.24026883      10.00000000        3       1.00000000       0.00000000       0.00000000       0.00000000       0.00000000       0.00000000       0.00000000
H        0.00000000       1.62013441      12.29121606        2       1.00000000       0.00000000       0.00000000       0.00000000       0.00000000       0.00000000       0.00000000
H        2.80615512       1.62013441      12.29121606        2       1.00000000       0.00000000       0.00000000       0.00000000       0.00000000       0.00000000       0.00000000
H        1.40307756       4.05033604      12.29121606        2       1.00000000       0.00000000       0.00000000       0.00000000       0.00000000       0.00000000       0.00000000
H        4.20923268       4.05033604      12.29121606        2       1.00000000       0.00000000       0.00000000       0.00000000       0.00000000       0.00000000       0.00000000
H        0.00000000       0.00000000      14.58243212        1       1.00000000       0.00000000       0.00000000       0.00000000       0.00000000       0.00000000       0.00000000
H        2.80615512       0.00000000      14.58243212        1       1.00000000       0.00000000       0.00000000       0.00000000       0.00000000       0.00000000       0.00000000
H        1.40307756       2.43020162      14.58243212        1       1.00000000       0.00000000       0.00000000       0.00000000       0.00000000       0.00000000       0.00000000
H        4.20923268       2.43020162      14.58243212        1       1.00000000       0.00000000       0.00000000       0.00000000       0.00000000       0.00000000       0.00000000
H        1.40307737       4.06638264       7.78314539        0       1.00000000       0.00000220      -0.00000021       0.00000334      -0.00000607       0.00000762      -0.00000323
H        2.80400131       3.24074129       5.56382630        0       1.00000000      -0.00000001       0.00000546      -0.00000485       0.00000793      -0.00000359       0.00000083
H        0.00214414       3.24074202       5.56382826        0       1.00000000      -0.00000110       0.00000242      -0.00000245      -0.00000490       0.00000204       0.00000106
H        4.20923084       4.04233480       7.80012911        0       1.00000000      -0.00000258       0.00000339       0.00000019      -0.00000019      -0.00000507      -0.00000306
H        0.00758348       1.61630163       7.78115493        0       1.00000000      -0.00000255       0.00000001      -0.00000057       0.00000053      -0.00000733      -0.00000016
H        2.79856964       1.61629793       7.78115299        0       1.00000000       0.00000304       0.00000099       0.00000376       0.00000083       0.00000381       0.00000118
H        4.20922575       0.80629626       5.56559012        0       1.00000000      -0.00000173       0.00000352       0.00000042      -0.00000165       0.00000645       0.00000842
19
Lattice="5.612310241546866 0.0 0.0 0.0 4.860403243099165 0.0 0.0 0.0 24.582432123328676" Properties=species:S:1:pos:R:3:tags:I:1:masses:R:1:momenta:R:3:forces:R:3 KEmax=24.559391461069055 iter=90485 volume=670.5618179858607 ns_energy=-12.53537527819639 last_walked_iter_clone=90385 energy=-12.535375278304777 stress="0.008711114120862114 -1.35714735393295e-09 -7.112012456996555e-09 -1.35714735393295e-09 0.008748311521201306 3.108752167075457e-08 -7.112012456996555e-09 3.108752167075457e-08 0.0042309366161279545" pbc="T T T"
H        1.40307756       0.81006721      10.00000000        3       1.00000000       0.00000000       0.00000000       0.00000000       0.00000000       0.00000000       0.00000000
H        4.20923268       0.81006721      10.00000000        3       1.00000000       0.00000000       0.00000000       0.00000000       0.00000000       0.00000000       0.00000000
H        0.00000000       3.24026883      10.00000000        3       1.00000000       0.00000000       0.00000000       0.00000000       0.00000000       0.00000000       0.00000000
H        2.80615512       3.24026883      10.00000000        3       1.00000000       0.00000000       0.00000000       0.00000000       0.00000000       0.00000000       0.00000000
H        0.00000000       1.62013441      12.29121606        2       1.00000000       0.00000000       0.00000000       0.00000000       0.00000000       0.00000000       0.00000000
H        2.80615512       1.62013441      12.29121606        2       1.00000000       0.00000000       0.00000000       0.00000000       0.00000000       0.00000000       0.00000000
H        1.40307756       4.05033604      12.29121606        2       1.00000000       0.00000000       0.00000000       0.00000000       0.00000000       0.00000000       0.00000000
H        4.20923268       4.05033604      12.29121606        2       1.00000000       0.00000000       0.00000000       0.00000000       0.00000000       0.00000000       0.00000000
H        0.00000000       0.00000000      14.58243212        1       1.00000000       0.00000000       0.00000000       0.00000000       0.00000000       0.00000000       0.00000000
H        2.80615512       0.00000000      14.58243212        1       1.00000000       0.00000000       0.00000000       0.00000000       0.00000000       0.00000000       0.00000000
H        1.40307756       2.43020162      14.58243212        1       1.00000000       0.00000000       0.00000000       0.00000000       0.00000000       0.00000000       0.00000000
H        4.20923268       2.43020162      14.58243212        1       1.00000000       0.00000000       0.00000000       0.00000000       0.00000000       0.00000000       0.00000000
H        1.40307596       4.06638433       7.78314781        0       1.00000000       0.00000415       0.00000119       0.00000075      -0.00000607       0.00000762      -0.00000323
H        2.80400936       3.24074600       5.56382913        0       1.00000000       0.00000556       0.00000279       0.00000630       0.00000793      -0.00000359       0.00000083
H        0.00215355       3.24074518       5.56382809        0       1.00000000       0.00000076      -0.00000247      -0.00000007      -0.00000490       0.00000204       0.00000106
H        4.20923164       4.04233645       7.80012733        0       1.00000000       0.00000089       0.00000057      -0.00000155      -0.00000019      -0.00000507      -0.00000306
H        0.00758407       1.61630102       7.78115273        0       1.00000000      -0.00000395      -0.00000620       0.00000041       0.00000053      -0.00000733      -0.00000016
H        2.79856736       1.61629885       7.78114864        0       1.00000000      -0.00000449      -0.00000013       0.00000346       0.00000083       0.00000381       0.00000118
H        4.20923603       0.80629806       5.56558895        0       1.00000000       0.00000589      -0.00000010      -0.00000025      -0.00000165       0.00000645       0.00000842
19
Lattice="5.612310241546866 0.0 0.0 0.0 4.860403243099165 0.0 0.0 0.0 24.582432123328676" Properties=species:S:1:pos:R:3:tags:I:1:masses:R:1:momenta:R:3:forces:R:3 KEmax=24.559391461069055 iter=90485 volume=670.5618179858607 ns_energy=-12.535375278197899 last_walked_iter_clone=90433 energy=-12.535375278304777 stress="0.008711114120862114 -1.35714735393295e-09 -7.112012456996555e-09 -1.35714735393295e-09 0.008748311521201306 3.108752167075457e-08 -7.112012456996555e-09 3.108752167075457e-08 0.0042309366161279545" pbc="T T T"
H        1.40307756       0.81006721      10.00000000        3       1.00000000       0.00000000       0.00000000       0.00000000       0.00000000       0.00000000       0.00000000
H        4.20923268       0.81006721      10.00000000        3       1.00000000       0.00000000       0.00000000       0.00000000       0.00000000       0.00000000       0.00000000
H        0.00000000       3.24026883      10.00000000        3       1.00000000       0.00000000       0.00000000       0.00000000       0.00000000       0.00000000       0.00000000
H        2.80615512       3.24026883      10.00000000        3       1.00000000       0.00000000       0.00000000       0.00000000       0.00000000       0.00000000       0.00000000
H        0.00000000       1.62013441      12.29121606        2       1.00000000       0.00000000       0.00000000       0.00000000       0.00000000       0.00000000       0.00000000
H        2.80615512       1.62013441      12.29121606        2       1.00000000       0.00000000       0.00000000       0.00000000       0.00000000       0.00000000       0.00000000
H        1.40307756       4.05033604      12.29121606        2       1.00000000       0.00000000       0.00000000       0.00000000       0.00000000       0.00000000       0.00000000
H        4.20923268       4.05033604      12.29121606        2       1.00000000       0.00000000       0.00000000       0.00000000       0.00000000       0.00000000       0.00000000