23
Lattice="5.612310241546866 0.0 0.0 0.0 4.860403243099165 0.0 0.0 0.0 44.58243212332868" Properties=species:S:1:pos:R:3:tags:I:1:masses:R:1:momenta:R:3 KEmax=29.729789663399384 iter=99 volume=1216.1236359717223 set_wall=T ns_energy=276893.11622389127 last_walked_iter_clone=76 ns_P=0.0 config_n_global=99 ns_KE=26.51228824551798 pbc="T T F"
H        1.40307756       0.81006721      20.00000000        3       1.00000000       0.00000000       0.00000000       0.00000000
H        4.20923268       0.81006721      20.00000000        3       1.00000000       0.00000000       0.00000000       0.00000000
H        0.00000000       3.24026883      20.00000000        3       1.00000000       0.00000000       0.00000000       0.00000000
H        2.80615512       3.24026883      20.00000000        3       1.00000000       0.00000000       0.00000000       0.00000000
H        0.00000000       1.62013441      22.29121606        2       1.00000000       0.00000000       0.00000000       0.00000000
H        2.80615512       1.62013441      22.29121606        2       1.00000000       0.00000000       0.00000000       0.00000000
H        1.40307756       4.05033604      22.29121606        2       1.00000000       0.00000000       0.00000000       0.00000000
H        4.20923268       4.05033604      22.29121606        2       1.00000000       0.00000000       0.00000000       0.00000000
H        0.00000000       0.00000000      24.58243212        1       1.00000000       0.00000000       0.00000000       0.00000000
H        2.80615512       0.00000000      24.58243212        1       1.00000000       0.00000000       0.00000000       0.00000000
H        1.40307756       2.43020162      24.58243212        1       1.00000000       0.00000000       0.00000000       0.00000000
H        4.20923268       2.43020162      24.58243212        1       1.00000000       0.00000000       0.00000000       0.00000000
H        2.40268769       2.80041414      41.17384074        0       1.00000000       1.58958647       1.51743639       0.96026626
H        1.71906860       3.94930231      31.12634493        0       1.00000000       0.77974565      -1.78058351      -1.79428046
H        4.32520984       2.74516368      30.39465064        0       1.00000000      -2.01747634      -1.63566369      -0.81766075
H        5.39414905       2.99681361      31.70442178        0       1.00000000       0.38911470       0.08700711       1.64723027
H        0.46354427       1.03705984      36.15892137        0       1.00000000      -1.14128570      -0.46165612       2.27475432
H        2.19896035       3.38317187      31.46341104        0       1.00000000       0.22067968      -1.27849566       0.54903556
H        1.41329538       0.78870352      28.84846151        0       1.00000000      -2.14966538       1.57205100       0.15957821
H        5.17980918       1.36010714      38.13410006        0       1.00000000      -0.51586891       0.60436216      -1.73180575
H        1.04600202       3.44034407      32.97169445        0       1.00000000      -0.13237439      -1.21649697      -0.76814011
H        3.00393329       1.19493702      33.71437968        0       1.00000000      -0.09716731       1.18749053      -1.20482210
H        4.38294653       1.97331049      42.13333719        0       1.00000000      -0.71950340      -2.19172826      -0.53423746
23
Lattice="5.612310241546866 0.0 0.0 0.0 4.860403243099165 0.0 0.0 0.0 44.58243212332868" Properties=species:S:1:pos:R:3:tags:I:1:masses:R:1:momenta:R:3 KEmax=29.729789663399384 iter=199 volume=1216.1236359717223 set_wall=T ns_energy=19127.022495969228 ns_P=0.0 config_n_global=199 ns_KE=10.949050507070275 pbc="T T F"
H        1.40307756       0.81006721      20.00000000        3       1.00000000       0.00000000       0.00000000       0.00000000
H        4.20923268       0.81006721      20.00000000        3       1.00000000       0.00000000       0.00000000       0.00000000
H        0.00000000       3.24026883      20.00000000        3       1.00000000       0.00000000       0.00000000       0.00000000
H        2.80615512       3.24026883      20.00000000        3       1.00000000       0.00000000       0.00000000       0.00000000
H        0.00000000       1.62013441      22.29121606        2       1.00000000       0.00000000       0.00000000       0.00000000
H        2.80615512       1.62013441      22.29121606        2       1.00000000       0.00000000       0.00000000       0.00000000
H        1.40307756       4.05033604      22.29121606        2       1.00000000       0.00000000       0.00000000       0.00000000
H        4.20923268       4.05033604      22.29121606        2       1.00000000       0.00000000       0.00000000       0.00000000
H        0.00000000       0.00000000      24.58243212        1       1.00000000       0.00000000       0.00000000       0.00000000
H        2.80615512       0.00000000      24.58243212        1       1.00000000       0.00000000       0.00000000       0.00000000
H        1.40307756       2.43020162      24.58243212        1       1.00000000       0.00000000       0.00000000       0.00000000
H        4.20923268       2.43020162      24.58243212        1       1.00000000       0.00000000       0.00000000       0.00000000
H        4.17948363       3.05607648      36.92005945        0       1.00000000       0.61648840      -0.77772273       0.04173015
H        3.73330754       2.26431306      32.75228568        0       1.00000000      -0.09837217      -0.60398915      -1.07919228
H        1.11104641       3.22960870      35.73473637        0       1.00000000      -1.21903317      -0.89762981      -0.03707836
H        3.76897472       2.08776240      39.02182543        0       1.00000000       0.22531326      -0.15391305       0.60182809
H        2.06383644       0.46868610      41.59381066        0       1.00000000      -0.81100402       0.19726638       0.33623315
H        4.53800905       1.82423378      41.96753079        0       1.00000000      -0.31802778      -0.06246259       0.72785674
H        4.70217356       0.88261686      29.03459858        0       1.00000000      -0.45001424      -1.13468665      -1.66693325
H        5.19781264       0.08734720      28.61986395        0       1.00000000      -0.59513526       1.52373507       0.14809801
H        2.34880167       4.35538922      35.55147090        0       1.00000000       0.87268315      -1.54617166       1.20237698
H        4.19999719       3.38809183      35.69862716        0       1.00000000       0.84450632       1.08459091       0.19449367
H        5.35381242       1.03751845      32.20548131        0       1.00000000      -0.16716842      -0.63241583      -1.13058697
23
Lattice="5.612310241546866 0.0 0.0 0.0 4.860403243099165 0.0 0.0 0.0 44.58243212332868" Properties=species:S:1:pos:R:3:tags:I:1:masses:R:1:momenta:R:3 KEmax=29.729789663399384 iter=299 volume=1216.1236359717223 set_wall=T ns_energy=2724.967278139014 ns_P=0.0 config_n_global=299 ns_KE=13.464900025862331 pbc="T T F"
H        1.40307756       0.81006721      20.00000000        3       1.00000000       0.00000000       0.00000000       0.00000000
H        4.20923268       0.81006721      20.00000000        3       1.00000000       0.00000000       0.00000000       0.00000000
H        0.00000000       3.24026883      20.00000000        3       1.00000000       0.00000000       0.00000000       0.00000000
H        2.80615512       3.24026883      20.00000000        3       1.00000000       0.00000000       0.00000000       0.00000000
H        0.00000000       1.62013441      22.29121606        2       1.00000000       0.00000000       0.00000000       0.00000000
H        2.80615512       1.62013441      22.29121606        2       1.00000000       0.00000000       0.00000000       0.00000000
H        1.40307756       4.05033604      22.29121606        2       1.00000000       0.00000000       0.00000000       0.00000000
H        4.20923268       4.05033604      22.29121606        2       1.00000000       0.00000000       0.00000000       0.00000000
H        0.00000000       0.00000000      24.58243212        1       1.00000000       0.00000000       0.00000000       0.00000000
H        2.80615512       0.00000000      24.58243212        1       1.00000000       0.00000000       0.00000000       0.00000000
H        1.40307756       2.43020162      24.58243212        1       1.00000000       0.00000000       0.00000000       0.00000000
H        4.20923268       2.43020162      24.58243212        1       1.00000000       0.00000000       0.00000000       0.00000000
H        2.16923380       1.32033285      35.13220686        0       1.00000000       1.32415541      -0.22669480       0.03182386
H        2.89335137       3.62239813      36.96754594        0       1.00000000       0.64763350       1.21268563      -1.74211747
H        3.91862307       0.17973691      41.99007600        0       1.00000000       1.19495726      -0.79592987       0.37023946
H        3.02429143       1.48921785      39.02970714        0       1.00000000      -0.89228139      -0.40708422       0.24032022
H        1.70510521       0.29925011      39.17559934        0       1.00000000       1.01577906      -0.02809515       0.53805757
H        4.68536016       0.43085257      33.55589367        0       1.00000000       1.10909921       1.27758653       1.65143786
H        4.20680660       4.11306985      30.31402930        0       1.00000000      -0.65042436       0.69599785      -0.51775990
H        3.21751806       1.89594210      35.24521886        0       1.00000000       0.32806682       0.98018289       0.11495851
H        5.15722878       1.15084291      29.87534008        0       1.00000000      -0.52429170       0.86936225      -0.60365015
H        1.87915686       4.05197567      27.14658362        0       1.00000000      -1.67045457       1.39430041      -0.66640416
H        1.91522292       4.52499483      40.60894807        0       1.00000000       0.16797581       1.08696352       0.16935313
23
Lattice="5.612310241546866 0.0 0.0 0.0 4.860403243099165 0.0 0.0 0.0 44.58243212332868" Properties=species:S:1:pos:R:3:tags:I:1:masses:R:1:momenta:R:3 KEmax=29.729789663399384 iter=399 volume=1216.1236359717223 set_wall=T ns_energy=551.5864849252429 last_walked_iter_clone=261 ns_P=0.0 config_n_global=399 ns_KE=29.06597564846153 pbc="T T F"
H        1.40307756       0.81006721      20.00000000        3       1.00000000       0.00000000       0.00000000       0.00000000
H        4.20923268       0.81006721      20.00000000        3       1.00000000       0.00000000       0.00000000       0.00000000
H        0.00000000       3.24026883      20.00000000        3       1.00000000       0.00000000       0.00000000       0.00000000
H        2.80615512       3.24026883      20.00000000        3       1.00000000       0.00000000       0.00000000       0.00000000
H        0.00000000       1.62013441      22.29121606        2       1.00000000       0.00000000       0.00000000       0.00000000
H        2.80615512       1.62013441      22.29121606        2       1.00000000       0.00000000       0.00000000       0.00000000
H        1.40307756       4.05033604      22.29121606        2       1.00000000       0.00000000       0.00000000       0.00000000
H        4.20923268       4.05033604      22.29121606        2       1.00000000       0.00000000       0.00000000       0.00000000
H        0.00000000       0.00000000      24.58243212        1       1.00000000       0.00000000       0.00000000       0.00000000
H        2.80615512       0.00000000      24.58243212        1       1.00000000       0.00000000       0.00000000       0.00000000
H        1.40307756       2.43020162      24.58243212        1       1.00000000       0.00000000       0.00000000       0.00000000
H        4.20923268       2.43020162      24.58243212        1       1.00000000       0.00000000       0.00000000       0.00000000
H        1.95173260       1.38796650      36.56729513        0       1.00000000       1.93634497      -1.49009613      -0.89168047
H        4.74191408       0.48683984      34.42327198        0       1.00000000      -0.30781578      -1.85913894       0.83428729
H        5.05310087       3.20176039      35.99055068        0       1.00000000      -0.28748176      -0.86735491      -0.61361872
H        0.89296303       4.52749722      35.89091058        0       1.00000000       0.07189125       0.84505484       0.11885878
H        2.35903255       3.58023900      35.18956168        0       1.00000000      -0.86565271       0.12613443      -0.21618381
H        1.00680606       1.50530432      39.94076088        0       1.00000000       0.16039761      -0.14114584      -0.55049574
H        3.08829160       0.69801072      29.79343167        0       1.00000000      -0.84644658      -0.50906275      -1.44356782
H        0.64642419       1.81425488      36.48608745        0       1.00000000      -5.11760930       1.50209114       0.53281906
H        2.14632161       3.29830095      38.30833583        0       1.00000000      -0.01327599      -0.53510451      -0.52461330
H        3.83165854       1.70660366      26.93467974        0       1.00000000       2.22120081       0.83590060       0.11973464
H        5.19040292       0.34464731      29.58381976        0       1.00000000       0.18428264      -1.55808651       1.88534878
23
Lattice="5.612310241546866 0.0 0.0 0.0 4.860403243099165 0.0 0.0 0.0 44.58243212332868" Properties=species:S:1:pos:R:3:tags:I:1:masses:R:1:momenta:R:3 KEmax=29.729789663399384 iter=499 volume=1216.1236359717223 set_wall=T ns_energy=260.05710864030556 last_walked_iter_clone=411 ns_P=0.0 config_n_global=499 ns_KE=27.57259498832378 pbc="T T F"
H        1.40307756       0.81006721      20.00000000        3       1.00000000       0.00000000       0.00000000       0.00000000
H        4.20923268       0.81006721      20.00000000        3       1.00000000       0.00000000       0.00000000       0.00000000
H        0.00000000       3.24026883      20.00000000        3       1.00000000       0.00000000       0.00000000       0.00000000
H        2.80615512       3.24026883      20.00000000        3       1.00000000       0.00000000       0.00000000       0.00000000
H        0.00000000       1.62013441      22.29121606        2       1.00000000       0.00000000       0.00000000       0.00000000
H        2.80615512       1.62013441      22.29121606        2       1.00000000       0.00000000       0.00000000       0.00000000
H        1.40307756       4.05033604      22.29121606        2       1.00000000       0.00000000       0.00000000       0.00000000
H        4.20923268       4.05033604      22.29121606        2       1.00000000       0.00000000       0.00000000       0.00000000
H        0.00000000       0.00000000      24.58243212        1       1.00000000       0.00000000       0.00000000       0.00000000
H        2.80615512       0.00000000      24.58243212        1       1.00000000       0.00000000       0.00000000       0.00000000
H        1.40307756       2.43020162      24.58243212        1       1.00000000       0.00000000       0.00000000       0.00000000
H        4.20923268       2.43020162      24.58243212        1       1.00000000       0.00000000       0.00000000       0.00000000
H        2.67456223       4.58960823      32.79425935        0       1.00000000       1.17962444       2.07310267      -1.48567944
H        2.89913818       4.60717187      42.08168444        0       1.00000000      -2.28426119       0.90034059      -0.44193422
H        3.19209631       3.23092527      29.61351270        0       1.00000000      -0.35272324      -1.75034358      -0.01069841
H        4.67913582       0.74583142      26.58009237        0       1.00000000      -0.34056401       0.51351023      -0.17704121
H        5.17724860       2.30122734      37.00705647        0       1.00000000       0.29387845      -4.09051200       0.02100332
H        2.12455796       4.00294436      31.24084291        0       1.00000000       0.16287134      -0.27209627       1.43652647
H        4.78090240       3.71032209      27.90537614        0       1.00000000      -0.50658984      -1.29635681       1.32992848
H        4.24967802       4.52280338      41.45978816        0       1.00000000       1.36205114      -0.40756153      -1.08048125
H        2.40732827       0.42621698      35.96742832        0       1.00000000      -1.77422864       0.22041415       1.79745310
H        3.61711103       1.32685706      35.03372090        0       1.00000000       0.06407833       0.35871617      -1.49568678
H        0.67533901       1.09029835      41.32252252        0       1.00000000      -0.77618815       1.43853106      -0.28066052
23
Lattice="5.612310241546866 0.0 0.0 0.0 4.860403243099165 0.0 0.0 0.0 44.58243212332868" Properties=species:S:1:pos:R:3:tags:I:1:masses:R:1:momenta:R:3 KEmax=29.729789663399384 iter=599 volume=1216.1236359717223 set_wall=T ns_energy=154.61008713262524 last_walked_iter_clone=2 ns_P=0.0 config_n_global=599 ns_KE=29.07247865590569 pbc="T T F"
H        1.40307756       0.81006721      20.00000000        3       1.00000000       0.00000000       0.00000000       0.00000000
H        4.20923268       0.81006721      20.00000000        3       1.00000000       0.00000000       0.00000000       0.00000000
H        0.00000000       3.24026883      20.00000000        3       1.00000000       0.00000000       0.00000000       0.00000000
H        2.80615512       3.24026883      20.00000000        3       1.00000000       0.00000000       0.00000000       0.00000000
H        0.00000000       1.62013441      22.29121606        2       1.00000000       0.00000000       0.00000000       0.00000000
H        2.80615512       1.62013441      22.29121606        2       1.00000000       0.00000000       0.00000000       0.00000000
H        1.40307756       4.05033604      22.29121606        2       1.00000000       0.00000000       0.00000000       0.00000000
H        4.20923268       4.05033604      22.29121606        2       1.00000000       0.00000000       0.00000000       0.00000000
H        0.00000000       0.00000000      24.58243212        1       1.00000000       0.00000000       0.00000000       0.00000000
H        2.80615512       0.00000000      24.58243212        1       1.00000000       0.00000000       0.00000000       0.00000000
H        1.40307756       2.43020162      24.58243212        1       1.00000000       0.00000000       0.00000000       0.00000000
H        4.20923268       2.43020162      24.58243212        1       1.00000000       0.00000000       0.00000000       0.00000000
H        5.15913132       2.27138605      39.49892681        0       1.00000000      -0.48678915      -2.18452518      -1.10444964
H        3.32288390       2.08319954      35.89070123        0       1.00000000      -0.97119733       1.19034964       0.14544131
H        5.45816618       2.48234704      32.92743905        0       1.00000000       0.19773404       1.25231534       0.01563680
H        2.04572102       1.16510905      29.09344604        0       1.00000000      -1.61415164      -1.45060784       0.45934525
H        1.72856147       2.65467004      40.94699522        0       1.00000000       0.41091550      -1.84052100      -2.24410591
H        3.07462357       1.49747967      27.44863692        0       1.00000000      -0.16158258      -2.24391296       0.72749484
H        0.46108970       3.26565490      37.21161510        0       1.00000000       1.84730715       1.37149031      -0.02935779
H        5.59922971       3.16732894      41.99841825        0       1.00000000      -0.39394827       1.63404992       0.09435018
H        3.06291723       0.06989848      28.66742642        0       1.00000000       1.85842909      -2.80163320       0.95190802
H        3.31075214       4.24311202      42.19639041        0       1.00000000      -0.81952380      -1.45264557       0.36538273
H        3.81378184       3.22070998      38.34223575        0       1.00000000      -0.89818733       0.66861798      -2.07767185
23
Lattice="5.612310241546866 0.0 0.0 0.0 4.860403243099165 0.0 0.0 0.0 44.58243212332868" Properties=species:S:1:pos:R:3:tags:I:1:masses:R:1:momenta:R:3 KEmax=29.729789663399384 iter=699 volume=1216.1236359717223 set_wall=T ns_energy=103.67827260957502 last_walked_iter_clone=447 ns_P=0.0 config_n_global=699 ns_KE=27.945880003091084 pbc="T T F"
H        1.40307756       0.81006721      20.00000000        3       1.00000000       0.00000000       0.00000000       0.00000000
H        4.20923268       0.81006721      20.00000000        3       1.00000000       0.00000000       0.00000000       0.00000000
H        0.00000000       3.24026883      20.00000000        3       1.00000000       0.00000000       0.00000000       0.00000000
H        2.80615512       3.24026883      20.00000000        3       1.00000000       0.00000000       0.00000000       0.00000000
H        0.00000000       1.62013441      22.29121606        2       1.00000000       0.00000000       0.00000000       0.00000000
H        2.80615512       1.62013441      22.29121606        2       1.00000000       0.00000000       0.00000000       0.00000000
H        1.40307756       4.05033604      22.29121606        2       1.00000000       0.00000000       0.00000000       0.00000000
H        4.20923268       4.05033604      22.29121606        2       1.00000000       0.00000000       0.00000000       0.00000000
H        0.00000000       0.00000000      24.58243212        1       1.00000000       0.00000000       0.00000000       0.00000000
H        2.80615512       0.00000000      24.58243212        1       1.00000000       0.00000000       0.00000000       0.00000000
H        1.40307756       2.43020162      24.58243212        1       1.00000000       0.00000000       0.00000000       0.00000000
H        4.20923268       2.43020162      24.58243212        1       1.00000000       0.00000000       0.00000000       0.00000000
H        4.45730589       4.22503569      33.87607306        0       1.00000000      -0.09853870       2.57864802      -0.25107964
H        4.58202883       3.09164408      26.85489740        0       1.00000000       0.36125577       1.04372742      -1.86422968
H        0.30157091       0.66869327      34.71025706        0       1.00000000      -1.38528127       0.52944471       1.29567369
H        1.61923306       3.20661703      41.93699935        0       1.00000000       1.77855756      -0.51526592      -0.45423389
H        3.14353363       3.08446121      33.95308654        0       1.00000000      -0.68307396      -1.00176848       0.05534758
H        2.65823610       0.19094195      34.23376606        0       1.00000000       0.35604898      -0.73924446       0.06512971
H        1.90573707       1.53970593      28.02131675        0       1.00000000      -0.68800885      -0.44073018      -1.08598880
H        4.85399260       3.14973683      37.11580574        0       1.00000000      -0.42813834       0.25589340       0.62162685
H        2.47178974       1.92803045      40.89650265        0       1.00000000      -3.23343182      -1.80988177       1.01338125
H        2.45909912       0.50062079      29.24827095        0       1.00000000       1.11136841      -2.39954727      -1.24648457
H        0.62543794       3.90527010      29.82284796        0       1.00000000       1.69662110       1.27267647      -2.12736938
23
Lattice="5.612310241546866 0.0 0.0 0.0 4.860403243099165 0.0 0.0 0.0 44.58243212332868" Properties=species:S:1:pos:R:3:tags:I:1:masses:R:1:momenta:R:3 KEmax=29.729789663399384 iter=799 volume=1216.1236359717223 set_wall=T ns_energy=67.65247255376185 last_walked_iter_clone=638 ns_P=0.0 config_n_global=799 ns_KE=28.668165152008193 pbc="T T F"
H        1.40307756       0.81006721      20.00000000        3       1.00000000       0.00000000       0.00000000       0.00000000
H        4.20923268       0.81006721      20.00000000        3       1.00000000       0.00000000       0.00000000       0.00000000
H        0.00000000       3.24026883      20.00000000        3       1.00000000       0.00000000       0.00000000       0.00000000
H        2.80615512       3.24026883      20.00000000        3       1.00000000       0.00000000       0.00000000       0.00000000
H        0.00000000       1.62013441      22.29121606        2       1.00000000       0.00000000       0.00000000       0.00000000
H        2.80615512       1.62013441      22.29121606        2       1.00000000       0.00000000       0.00000000       0.00000000
H        1.40307756       4.05033604      22.29121606        2       1.00000000       0.00000000       0.00000000       0.00000000
H        4.20923268       4.05033604      22.29121606        2       1.00000000       0.00000000       0.00000000       0.00000000
H        0.00000000       0.00000000      24.58243212        1       1.00000000       0.00000000       0.00000000       0.00000000
H        2.80615512       0.00000000      24.58243212        1       1.00000000       0.00000000       0.00000000       0.00000000
H        1.40307756       2.43020162      24.58243212        1       1.00000000       0.00000000       0.00000000       0.00000000
H        4.20923268       2.43020162      24.58243212        1       1.00000000       0.00000000       0.00000000       0.00000000
H        0.22085445       3.51544600      31.54572573        0       1.00000000      -0.46861338       1.15686971      -0.26627733
H        3.97474685       0.76617590      30.10775957        0       1.00000000      -1.21609106       0.05752468       0.85791424
H        1.12346049       4.34336800      38.10348323        0       1.00000000       1.39985162      -1.93977885      -0.24367144
H        1.38371755       2.49509140      40.76287809        0       1.00000000      -1.97709200      -0.24678939      -1.92997705
H        0.07265671       4.50720913      26.83513421        0       1.00000000       1.88907193       0.21826525       0.52189035
H        1.23519144       1.84016925      39.12817903        0       1.00000000       2.27582006      -1.35446389       0.61908427
H        3.80525644       1.71966195      38.03147198        0       1.00000000      -0.17668861      -0.25687126       0.21508756
H        5.59470420       1.13121788      35.62544865        0       1.00000000       1.52055636      -1.26995010       1.97755558
H        3.15607063       1.80783417      31.95738493        0       1.00000000      -2.15317196      -0.75805581      -1.66083302
H        0.79574204       4.32124323      36.18496663        0       1.00000000      -0.68299408       0.23724120       1.16380660
H        0.11340900       4.70016603      30.03241212        0       1.00000000      -2.43325521      -1.46031044      -1.68775048
23
Lattice="5.612310241546866 0.0 0.0 0.0 4.860403243099165 0.0 0.0 0.0 44.58243212332868" Properties=species:S:1:pos:R:3:tags:I:1:masses:R:1:momenta:R:3 KEmax=29.729789663399384 iter=899 volume=1216.1236359717223 set_wall=T ns_energy=46.25169938747725 last_walked_iter_clone=196 ns_P=0.0 config_n_global=899 ns_KE=27.910966367846605 pbc="T T F"
H        1.40307756       0.81006721      20.00000000        3       1.00000000       0.00000000       0.00000000       0.00000000
H        4.20923268       0.81006721      20.00000000        3       1.00000000       0.00000000       0.00000000       0.00000000
H        0.00000000       3.24026883      20.00000000        3       1.00000000       0.00000000       0.00000000       0.00000000
H        2.80615512       3.24026883      20.00000000        3       1.00000000       0.00000000       0.00000000       0.00000000
H        0.00000000       1.62013441      22.29121606        2       1.00000000       0.00000000       0.00000000       0.00000000
H        2.80615512       1.62013441      22.29121606        2       1.00000000       0.00000000       0.00000000       0.00000000
H        1.40307756       4.05033604      22.29121606        2       1.00000000       0.00000000       0.00000000       0.00000000
H        4.20923268       4.05033604      22.29121606        2       1.00000000       0.00000000       0.00000000       0.00000000
H        0.00000000       0.00000000      24.58243212        1       1.00000000       0.00000000       0.00000000       0.00000000
H        2.80615512       0.00000000      24.58243212        1       1.00000000       0.00000000       0.00000000       0.00000000
H        1.40307756       2.43020162      24.58243212        1       1.00000000       0.00000000       0.00000000       0.00000000
H        4.20923268       2.43020162      24.58243212        1       1.00000000       0.00000000       0.00000000       0.00000000
H        4.87113884       3.16473213      28.65789572        0       1.00000000      -0.15781097      -1.16039518      -1.73010834
H        3.78958058       1.25759473      33.46141067        0       1.00000000      -0.00270383       1.48212098      -1.00384152
H        1.21752318       0.27514862      36.89896694        0       1.00000000      -0.33997102       0.42331295       1.81056522
H        2.98057305       3.41520188      26.63942977        0       1.00000000       0.12267509       0.89216245       1.89720799
H        2.79942679       4.14093319      30.71905639        0       1.00000000       1.83118550      -1.14701327       1.40707798
H        5.44573996       1.34236359      35.44025442        0       1.00000000       0.72511672      -0.59353393       0.35110614
H        1.59477073       1.61258273      28.60937505        0       1.00000000      -0.17864988      -0.21188225       1.83003390
H        3.35433956       4.54581293      41.25910309        0       1.00000000      -1.36030060       2.33196117      -0.55502395
H        2.45217710       0.43737755      32.60546647        0       1.00000000       2.83451773      -2.50972546      -1.18128729