23
Lattice="5.612310241546866 0.0 0.0 0.0 4.860403243099165 0.0 0.0 0.0 44.58243212332868" Properties=species:S:1:pos:R:3:tags:I:1:masses:R:1:momenta:R:3:forces:R:3 KEmax=29.729789663399384 iter=23842 volume=1216.1236359717223 set_wall=T ns_energy=-10.806270183035544 last_walked_iter_clone=23534 energy=-12.65891944944925 stress="0.01083360603774599 0.005610169694382919 -0.004460515410432214 0.005610169694382919 0.008630133017418877 -0.0031420041063977182 -0.004460515410432214 -0.0031420041063977182 0.007406521886973654" pbc="T T F"
H        1.40307756       0.81006721      20.00000000        3       1.00000000       0.00000000       0.00000000       0.00000000       0.00000000       0.00000000       0.00000000
H        4.20923268       0.81006721      20.00000000        3       1.00000000       0.00000000       0.00000000       0.00000000       0.00000000       0.00000000       0.00000000
H        0.00000000       3.24026883      20.00000000        3       1.00000000       0.00000000       0.00000000       0.00000000       0.00000000       0.00000000       0.00000000
H        2.80615512       3.24026883      20.00000000        3       1.00000000       0.00000000       0.00000000       0.00000000       0.00000000       0.00000000       0.00000000
H        0.00000000       1.62013441      22.29121606        2       1.00000000       0.00000000       0.00000000       0.00000000       0.00000000       0.00000000       0.00000000
H        2.80615512       1.62013441      22.29121606        2       1.00000000       0.00000000       0.00000000       0.00000000       0.00000000       0.00000000       0.00000000
H        1.40307756       4.05033604      22.29121606        2       1.00000000       0.00000000       0.00000000       0.00000000       0.00000000       0.00000000       0.00000000
H        4.20923268       4.05033604      22.29121606        2       1.00000000       0.00000000       0.00000000       0.00000000       0.00000000       0.00000000       0.00000000
H        0.00000000       0.00000000      24.58243212        1       1.00000000       0.00000000       0.00000000       0.00000000       0.00000000       0.00000000       0.00000000
H        2.80615512       0.00000000      24.58243212        1       1.00000000       0.00000000       0.00000000       0.00000000       0.00000000       0.00000000       0.00000000
H        1.40307756       2.43020162      24.58243212        1       1.00000000       0.00000000       0.00000000       0.00000000       0.00000000       0.00000000       0.00000000
H        4.20923268       2.43020162      24.58243212        1       1.00000000       0.00000000       0.00000000       0.00000000       0.00000000       0.00000000       0.00000000
H       -0.31256801       2.72764310      27.07311579        0       1.00000000      -0.47008309       0.15058372      -0.20941896      -0.27814496       0.20018958      -0.18326806
H        2.68178927       3.89606090      33.68438175        0       1.00000000       0.13791021       0.05471311       0.23878894      -0.12563483      -0.08108001      -0.21068010
H        5.29549716       3.24670137      32.74225520        0       1.00000000      -0.09867373      -0.28225072       0.07080280       0.09570420       0.06242563      -0.01888087
H        2.07303029       2.66461625      29.72648357        0       1.00000000      -0.01652310      -0.16817313      -0.21831636      -0.08072482      -0.09102013      -0.27936462
H        0.68454421      -0.31824458      28.63779001        0       1.00000000       0.29879936       0.58622047      -0.16636522      -0.37299012       0.24773038      -0.21310887
H        3.05757482       0.43273065      31.26498240        0       1.00000000       0.22776378      -0.33739785      -0.41725363       0.82117338      -0.27631188       0.37212331
H        3.41015170       0.51832968      28.73274537        0       1.00000000      -0.03012591      -0.02174405       0.30552371      -0.13279435       0.10635194       0.81864181
H        2.50358491       3.40170744      26.62055911        0       1.00000000      -0.11740713      -0.26973675       0.59041523       0.02159529      -0.18816070      -0.18114507
H        4.44198482       3.10472966      29.92527415        0       1.00000000       0.34905753       0.14311838       0.90277326       0.46299700      -0.11524466       0.25862971
H        0.05747641       0.77872048      31.35239383        0       1.00000000      -0.19239858       0.27505766       0.09478309       0.31999385      -0.10261866      -0.29774948
H        1.87281889       1.46574101      33.47074764        0       1.00000000      -0.75571027       0.05856495      -0.33798301      -0.37596071       0.20764696       0.35257242
23
Lattice="5.612310241546866 0.0 0.0 0.0 4.860403243099165 0.0 0.0 0.0 44.58243212332868" Properties=species:S:1:pos:R:3:tags:I:1:masses:R:1:momenta:R:3:forces:R:3 KEmax=29.729789663399384 iter=23842 volume=1216.1236359717223 set_wall=T ns_energy=-10.7478215539503 last_walked_iter_clone=23729 energy=-12.65891944944925 stress="0.01083360603774599 0.005610169694382919 -0.004460515410432214 0.005610169694382919 0.008630133017418877 -0.0031420041063977182 -0.004460515410432214 -0.0031420041063977182 0.007406521886973654" pbc="T T F"
H        1.40307756       0.81006721      20.00000000        3       1.00000000       0.00000000       0.00000000       0.00000000       0.00000000       0.00000000       0.00000000
H        4.20923268       0.81006721      20.00000000        3       1.00000000       0.00000000       0.00000000       0.00000000       0.00000000       0.00000000       0.00000000
H        0.00000000       3.24026883      20.00000000        3       1.00000000       0.00000000       0.00000000       0.00000000       0.00000000       0.00000000       0.00000000
H        2.80615512       3.24026883      20.00000000        3       1.00000000       0.00000000       0.00000000       0.00000000       0.00000000       0.00000000       0.00000000
H        0.00000000       1.62013441      22.29121606        2       1.00000000       0.00000000       0.00000000       0.00000000       0.00000000       0.00000000       0.00000000
H        2.80615512       1.62013441      22.29121606        2       1.00000000       0.00000000       0.00000000       0.00000000       0.00000000       0.00000000       0.00000000
H        1.40307756       4.05033604      22.29121606        2       1.00000000       0.00000000       0.00000000       0.00000000       0.00000000       0.00000000       0.00000000
H        4.20923268       4.05033604      22.29121606        2       1.00000000       0.00000000       0.00000000       0.00000000       0.00000000       0.00000000       0.00000000
H        0.00000000       0.00000000      24.58243212        1       1.00000000       0.00000000       0.00000000       0.00000000       0.00000000       0.00000000       0.00000000
H        2.80615512       0.00000000      24.58243212        1       1.00000000       0.00000000       0.00000000       0.00000000       0.00000000       0.00000000       0.00000000
H        1.40307756       2.43020162      24.58243212        1       1.00000000       0.00000000       0.00000000       0.00000000       0.00000000       0.00000000       0.00000000
H        4.20923268       2.43020162      24.58243212        1       1.00000000       0.00000000       0.00000000       0.00000000       0.00000000       0.00000000       0.00000000
H        0.26030937       1.35174994      26.81463709        0       1.00000000      -0.21258721       0.03987333       0.17397014      -0.27814496       0.20018958      -0.18326806
H        4.23356826       1.75294041      34.01115204        0       1.00000000      -0.01640834      -0.30855031       0.39245368      -0.12563483      -0.08108001      -0.21068010
H        4.01782728       4.18698032      29.01206325        0       1.00000000       0.08767299      -0.31739145       0.39406391       0.09570420       0.06242563      -0.01888087
H        1.67403037       4.42143589      29.92183525        0       1.00000000       0.18847403       0.29478202      -0.20582758      -0.08072482      -0.09102013      -0.27936462
H        1.04747594      -0.13098568      33.52851135        0       1.00000000       0.55318412      -0.20787378      -0.16942296      -0.37299012       0.24773038      -0.21310887
H        1.17677528       3.67623948      27.52395750        0       1.00000000      -0.15975611       0.01177778      -0.39020195       0.82117338      -0.27631188       0.37212331
H        2.67639768       0.96271653      27.17892420        0       1.00000000      -0.32948390       0.23751487       0.12470237      -0.13279435       0.10635194       0.81864181
H        3.02777593       1.75548927      30.61177538        0       1.00000000      -0.64473636      -0.26254496      -0.00050112       0.02159529      -0.18816070      -0.18114507
H        4.05776561       4.75458007      32.16350435        0       1.00000000       0.27925005      -0.29813879       0.10073226       0.46299700      -0.11524466       0.25862971
H        1.90303879       3.57989063      36.21901790        0       1.00000000       0.31755229      -0.09278853      -0.30663781       0.31999385      -0.10261866      -0.29774948
H        0.04941326       2.47890301      31.46461218        0       1.00000000      -0.04510699      -0.11068214      -0.21357686      -0.37596071       0.20764696       0.35257242
23
Lattice="5.612310241546866 0.0 0.0 0.0 4.860403243099165 0.0 0.0 0.0 44.58243212332868" Properties=species:S:1:pos:R:3:tags:I:1:masses:R:1:momenta:R:3:forces:R:3 KEmax=29.729789663399384 iter=23842 volume=1216.1236359717223 set_wall=T ns_energy=-10.780438804061882 last_walked_iter_clone=23802 energy=-12.65891944944925 stress="0.01083360603774599 0.005610169694382919 -0.004460515410432214 0.005610169694382919 0.008630133017418877 -0.0031420041063977182 -0.004460515410432214 -0.0031420041063977182 0.007406521886973654" pbc="T T F"
H        1.40307756       0.81006721      20.00000000        3       1.00000000       0.00000000       0.00000000       0.00000000       0.00000000       0.00000000       0.00000000
H        4.20923268       0.81006721      20.00000000        3       1.00000000       0.00000000       0.00000000       0.00000000       0.00000000       0.00000000       0.00000000
H        0.00000000       3.24026883      20.00000000        3       1.00000000       0.00000000       0.00000000       0.00000000       0.00000000       0.00000000       0.00000000
H        2.80615512       3.24026883      20.00000000        3       1.00000000       0.00000000       0.00000000       0.00000000       0.00000000       0.00000000       0.00000000
H        0.00000000       1.62013441      22.29121606        2       1.00000000       0.00000000       0.00000000       0.00000000       0.00000000       0.00000000       0.00000000
H        2.80615512       1.62013441      22.29121606        2       1.00000000       0.00000000       0.00000000       0.00000000       0.00000000       0.00000000       0.00000000
H        1.40307756       4.05033604      22.29121606        2       1.00000000       0.00000000       0.00000000       0.00000000       0.00000000       0.00000000       0.00000000
H        4.20923268       4.05033604      22.29121606        2       1.00000000       0.00000000       0.00000000       0.00000000       0.00000000       0.00000000       0.00000000
H        0.00000000       0.00000000      24.58243212        1       1.00000000       0.00000000       0.00000000       0.00000000       0.00000000       0.00000000       0.00000000
H        2.80615512       0.00000000      24.58243212        1       1.00000000       0.00000000       0.00000000       0.00000000       0.00000000       0.00000000       0.00000000
H        1.40307756       2.43020162      24.58243212        1       1.00000000       0.00000000       0.00000000       0.00000000       0.00000000       0.00000000       0.00000000
H        4.20923268       2.43020162      24.58243212        1       1.00000000       0.00000000       0.00000000       0.00000000       0.00000000       0.00000000       0.00000000
H        1.30138399       0.34039005      30.26050975        0       1.00000000      -0.17474793      -0.42174150       0.14732737      -0.27814496       0.20018958      -0.18326806
H        4.21453555       3.37545246      26.91559712        0       1.00000000      -0.18956018       0.27472668      -0.34258972      -0.12563483      -0.08108001      -0.21068010
H        5.24586779       1.05246429      27.61127852        0       1.00000000       0.19535984      -0.09949779       0.13539698       0.09570420       0.06242563      -0.01888087
H        5.09796264       2.00460368      32.01727109        0       1.00000000       0.36754941       0.26265892       0.25082861      -0.08072482      -0.09102013      -0.27936462
H        2.85091075       1.55559189      26.59145952        0       1.00000000      -0.10940593       0.43680714       0.22039662      -0.37299012       0.24773038      -0.21310887
H        3.61979046       2.46869499      29.52607891        0       1.00000000      -0.92108570      -0.05454128       0.02968242       0.82117338      -0.27631188       0.37212331
H        1.35209533       3.91608150      26.54446372        0       1.00000000      -0.22261743       0.43521942       0.30146440      -0.13279435       0.10635194       0.81864181
H        1.01197223       2.82950438      28.82344414        0       1.00000000      -0.18693811       0.11223206      -0.01902037       0.02159529      -0.18816070      -0.18114507
H        2.66420997       2.62859003      32.34547430        0       1.00000000       0.25652957      -0.01167782       0.03123536       0.46299700      -0.11524466       0.25862971
H        5.89272200       3.84388728      39.10944739        0       1.00000000       0.33845625      -0.08896038       0.12090293       0.31999385      -0.10261866      -0.29774948
H        3.76720731       4.84763904      30.35353867        0       1.00000000      -0.12553956       0.11050644       0.03371470      -0.37596071       0.20764696       0.35257242
23
Lattice="5.612310241546866 0.0 0.0 0.0 4.860403243099165 0.0 0.0 0.0 44.58243212332868" Properties=species:S:1:pos:R:3:tags:I:1:masses:R:1:momenta:R:3:forces:R:3 KEmax=29.729789663399384 iter=23842 volume=1216.1236359717223 set_wall=T ns_energy=-10.772822480075446 last_walked_iter_clone=23610 energy=-12.65891944944925 stress="0.01083360603774599 0.005610169694382919 -0.004460515410432214 0.005610169694382919 0.008630133017418877 -0.0031420041063977182 -0.004460515410432214 -0.0031420041063977182 0.007406521886973654" pbc="T T F"
H        1.40307756       0.81006721      20.00000000        3       1.00000000       0.00000000       0.00000000       0.00000000       0.00000000       0.00000000       0.00000000
H        4.20923268       0.81006721      20.00000000        3       1.00000000       0.00000000       0.00000000       0.00000000       0.00000000       0.00000000       0.00000000
H        0.00000000       3.24026883      20.00000000        3       1.00000000       0.00000000       0.00000000       0.00000000       0.00000000       0.00000000       0.00000000
H        2.80615512       3.24026883      20.00000000        3       1.00000000       0.00000000       0.00000000       0.00000000       0.00000000       0.00000000       0.00000000
H        0.00000000       1.62013441      22.29121606        2       1.00000000       0.00000000       0.00000000       0.00000000       0.00000000       0.00000000       0.00000000
H        2.80615512       1.62013441      22.29121606        2       1.00000000       0.00000000       0.00000000       0.00000000       0.00000000       0.00000000       0.00000000
H        1.40307756       4.05033604      22.29121606        2       1.00000000       0.00000000       0.00000000       0.00000000       0.00000000       0.00000000       0.00000000
H        4.20923268       4.05033604      22.29121606        2       1.00000000       0.00000000       0.00000000       0.00000000       0.00000000       0.00000000       0.00000000
H        0.00000000       0.00000000      24.58243212        1       1.00000000       0.00000000       0.00000000       0.00000000       0.00000000       0.00000000       0.00000000
H        2.80615512       0.00000000      24.58243212        1       1.00000000       0.00000000       0.00000000       0.00000000       0.00000000       0.00000000       0.00000000
H        1.40307756       2.43020162      24.58243212        1       1.00000000       0.00000000       0.00000000       0.00000000       0.00000000       0.00000000       0.00000000
H        4.20923268       2.43020162      24.58243212        1       1.00000000       0.00000000       0.00000000       0.00000000       0.00000000       0.00000000       0.00000000
H        5.86777720       3.18095077      26.96270338        0       1.00000000      -0.05305943      -0.18031650       0.35216698      -0.27814496       0.20018958      -0.18326806
H        2.00468956       3.08257749      35.88605983        0       1.00000000       0.11990896       0.01763443       0.10678922      -0.12563483      -0.08108001      -0.21068010
H        3.04464045      -0.22087535      31.06349010        0       1.00000000       0.88553404      -0.10612316      -0.46529283       0.09570420       0.06242563      -0.01888087
H        4.35885799       0.62362943      27.08043459        0       1.00000000      -0.33974478      -0.40143664       0.40111978      -0.08072482      -0.09102013      -0.27936462
H        5.87372336       5.53146428      29.57223726        0       1.00000000       0.21992840       0.44528695      -0.09975826      -0.37299012       0.24773038      -0.21310887
H        2.92320101       3.18786597      26.97656492        0       1.00000000       0.19552083       0.41935483       0.05790264       0.82117338      -0.27631188       0.37212331
H        1.22240933       0.93287139      26.66370512        0       1.00000000       0.45801784       0.02910393       0.03884834      -0.13279435       0.10635194       0.81864181
H        0.42312060       4.06819012      31.91128699        0       1.00000000       0.27899274       0.14122026      -0.17754968       0.02159529      -0.18816070      -0.18114507
H        4.13146564       2.51353229      30.36465135        0       1.00000000      -0.50824822      -0.28639056      -0.44650193       0.46299700      -0.11524466       0.25862971
H        2.97649751       0.40815917      37.24700848        0       1.00000000       0.17132775      -0.12945829      -0.43237660       0.31999385      -0.10261866      -0.29774948
H        1.50854333       2.97828722      29.54275939        0       1.00000000       0.01279137       0.59097324      -0.38054735      -0.37596071       0.20764696       0.35257242
23
Lattice="5.612310241546866 0.0 0.0 0.0 4.860403243099165 0.0 0.0 0.0 44.58243212332868" Properties=species:S:1:pos:R:3:tags:I:1:masses:R:1:momenta:R:3:forces:R:3 KEmax=29.729789663399384 iter=23842 volume=1216.1236359717223 set_wall=T ns_energy=-10.788391127433604 last_walked_iter_clone=23819 energy=-12.65891944944925 stress="0.01083360603774599 0.005610169694382919 -0.004460515410432214 0.005610169694382919 0.008630133017418877 -0.0031420041063977182 -0.004460515410432214 -0.0031420041063977182 0.007406521886973654" pbc="T T F"
H        1.40307756       0.81006721      20.00000000        3       1.00000000       0.00000000       0.00000000       0.00000000       0.00000000       0.00000000       0.00000000
H        4.20923268       0.81006721      20.00000000        3       1.00000000       0.00000000       0.00000000       0.00000000       0.00000000       0.00000000       0.00000000
H        0.00000000       3.24026883      20.00000000        3       1.00000000       0.00000000       0.00000000       0.00000000       0.00000000       0.00000000       0.00000000
H        2.80615512       3.24026883      20.00000000        3       1.00000000       0.00000000       0.00000000       0.00000000       0.00000000       0.00000000       0.00000000
H        0.00000000       1.62013441      22.29121606        2       1.00000000       0.00000000       0.00000000       0.00000000       0.00000000       0.00000000       0.00000000
H        2.80615512       1.62013441      22.29121606        2       1.00000000       0.00000000       0.00000000       0.00000000       0.00000000       0.00000000       0.00000000
H        1.40307756       4.05033604      22.29121606        2       1.00000000       0.00000000       0.00000000       0.00000000       0.00000000       0.00000000       0.00000000
H        4.20923268       4.05033604      22.29121606        2       1.00000000       0.00000000       0.00000000       0.00000000       0.00000000       0.00000000       0.00000000
H        0.00000000       0.00000000      24.58243212        1       1.00000000       0.00000000       0.00000000       0.00000000       0.00000000       0.00000000       0.00000000
H        2.80615512       0.00000000      24.58243212        1       1.00000000       0.00000000       0.00000000       0.00000000       0.00000000       0.00000000       0.00000000
H        1.40307756       2.43020162      24.58243212        1       1.00000000       0.00000000       0.00000000       0.00000000       0.00000000       0.00000000       0.00000000
H        4.20923268       2.43020162      24.58243212        1       1.00000000       0.00000000       0.00000000       0.00000000       0.00000000       0.00000000       0.00000000
H        1.59975418       4.59070426      38.94998395        0       1.00000000       0.12629875      -0.15057465       0.30336470      -0.27814496       0.20018958      -0.18326806
H        1.14162939       3.86574660      26.66131158        0       1.00000000      -0.06764964      -0.69973724       0.38758099      -0.12563483      -0.08108001      -0.21068010
H        3.15142886       2.76016720      31.31529231        0       1.00000000      -0.46514234      -0.30582398       0.21784159       0.09570420       0.06242563      -0.01888087
H        5.57304224       3.99602520      29.08707939        0       1.00000000       0.38198569      -0.49274087       0.38251662      -0.08072482      -0.09102013      -0.27936462
H        2.54125978       4.19025022      29.38582727        0       1.00000000      -0.35995854       0.32994068      -0.92283283      -0.37299012       0.24773038      -0.21310887
H        3.74390255       3.42266439      27.01638358        0       1.00000000      -0.62045770      -0.09435456      -0.18312554       0.82117338      -0.27631188       0.37212331
H        3.79118398       0.33784438      31.21344454        0       1.00000000      -0.20700556       0.26031942      -0.22051851      -0.13279435       0.10635194       0.81864181
H        5.15480409       0.91030984      27.08148431        0       1.00000000       0.08546222      -0.04910336      -0.06348602       0.02159529      -0.18816070      -0.18114507
H        0.83126572       3.84696670      31.75738915        0       1.00000000       0.51231537       0.08060722       0.32441996       0.46299700      -0.11524466       0.25862971
H        0.62259599       1.53509921      30.17524251        0       1.00000000      -0.42325393       0.14791851      -0.07764059       0.31999385      -0.10261866      -0.29774948
H        2.51628465       1.24978322      26.99800894        0       1.00000000      -0.28612165       0.13205022       0.10822806      -0.37596071       0.20764696       0.35257242
23
Lattice="5.612310241546866 0.0 0.0 0.0 4.860403243099165 0.0 0.0 0.0 44.58243212332868" Properties=species:S:1:pos:R:3:tags:I:1:masses:R:1:momenta:R:3:forces:R:3 KEmax=29.729789663399384 iter=23842 volume=1216.1236359717223 set_wall=T ns_energy=-10.751888441768815 last_walked_iter_clone=23637 energy=-12.65891944944925 stress="0.01083360603774599 0.005610169694382919 -0.004460515410432214 0.005610169694382919 0.008630133017418877 -0.0031420041063977182 -0.004460515410432214 -0.0031420041063977182 0.007406521886973654" pbc="T T F"
H        1.40307756       0.81006721      20.00000000        3       1.00000000       0.00000000       0.00000000       0.00000000       0.00000000       0.00000000       0.00000000
H        4.20923268       0.81006721      20.00000000        3       1.00000000       0.00000000       0.00000000       0.00000000       0.00000000       0.00000000       0.00000000
H        0.00000000       3.24026883      20.00000000        3       1.00000000       0.00000000       0.00000000       0.00000000       0.00000000       0.00000000       0.00000000
H        2.80615512       3.24026883      20.00000000        3       1.00000000       0.00000000       0.00000000       0.00000000       0.00000000       0.00000000       0.00000000
H        0.00000000       1.62013441      22.29121606        2       1.00000000       0.00000000       0.00000000       0.00000000       0.00000000       0.00000000       0.00000000
H        2.80615512       1.62013441      22.29121606        2       1.00000000       0.00000000       0.00000000       0.00000000       0.00000000       0.00000000       0.00000000
H        1.40307756       4.05033604      22.29121606        2       1.00000000       0.00000000       0.00000000       0.00000000       0.00000000       0.00000000       0.00000000
H        4.20923268       4.05033604      22.29121606        2       1.00000000       0.00000000       0.00000000       0.00000000       0.00000000       0.00000000       0.00000000
H        0.00000000       0.00000000      24.58243212        1       1.00000000       0.00000000       0.00000000       0.00000000       0.00000000       0.00000000       0.00000000
H        2.80615512       0.00000000      24.58243212        1       1.00000000       0.00000000       0.00000000       0.00000000       0.00000000       0.00000000       0.00000000
H        1.40307756       2.43020162      24.58243212        1       1.00000000       0.00000000       0.00000000       0.00000000       0.00000000       0.00000000       0.00000000
H        4.20923268       2.43020162      24.58243212        1       1.00000000       0.00000000       0.00000000       0.00000000       0.00000000       0.00000000       0.00000000
H        5.73120709       1.67041703      33.37547770        0       1.00000000      -0.13670852      -0.32325356      -0.25233360      -0.27814496       0.20018958      -0.18326806
H        4.24244768       4.33506459      32.51442112        0       1.00000000       0.05973028       0.06377549       0.12878506      -0.12563483      -0.08108001      -0.21068010
H        2.03124218       3.90502282      29.44077130        0       1.00000000      -0.31559351      -0.04663069       0.42835081       0.09570420       0.06242563      -0.01888087
H        2.55355031       2.34302142      27.41104990        0       1.00000000      -0.05848920      -0.18464019       0.40806155      -0.08072482      -0.09102013      -0.27936462
H        1.41686694       3.93279424      34.09216691        0       1.00000000      -0.16325894       0.18925546      -0.32604488      -0.37299012       0.24773038      -0.21310887
H        3.11021920       1.63970235      33.96459210        0       1.00000000       0.33991604       0.05098471       0.05849110       0.82117338      -0.27631188       0.37212331
H        3.87647397       1.88244158      29.78807298        0       1.00000000       0.12297435       0.43109810       0.34765652      -0.13279435       0.10635194       0.81864181
H        5.61184490       3.65280973      27.91156332        0       1.00000000      -0.08787625       0.17174552      -0.08928355       0.02159529      -0.18816070      -0.18114507
H        5.15739580       3.10505034      35.94411608        0       1.00000000      -0.63903393      -0.33569477      -0.06540855       0.46299700      -0.11524466       0.25862971
H        1.63193818       2.88451128      31.78941866        0       1.00000000      -0.05984274       0.10086278      -0.45484845       0.31999385      -0.10261866      -0.29774948
H        5.35689182       1.18799304      26.97610792        0       1.00000000       0.10552506       0.12137223      -0.12287485      -0.37596071       0.20764696       0.35257242
23
Lattice="5.612310241546866 0.0 0.0 0.0 4.860403243099165 0.0 0.0 0.0 44.58243212332868" Properties=species:S:1:pos:R:3:tags:I:1:masses:R:1:momenta:R:3:forces:R:3 KEmax=29.729789663399384 iter=23842 volume=1216.1236359717223 set_wall=T ns_energy=-10.817292596920135 last_walked_iter_clone=23598 energy=-12.65891944944925 stress="0.01083360603774599 0.005610169694382919 -0.004460515410432214 0.005610169694382919 0.008630133017418877 -0.0031420041063977182 -0.004460515410432214 -0.0031420041063977182 0.007406521886973654" pbc="T T F"
H        1.40307756       0.81006721      20.00000000        3       1.00000000       0.00000000       0.00000000       0.00000000       0.00000000       0.00000000       0.00000000
H        4.20923268       0.81006721      20.00000000        3       1.00000000       0.00000000       0.00000000       0.00000000       0.00000000       0.00000000       0.00000000
H        0.00000000       3.24026883      20.00000000        3       1.00000000       0.00000000       0.00000000       0.00000000       0.00000000       0.00000000       0.00000000
H        2.80615512       3.24026883      20.00000000        3       1.00000000       0.00000000       0.00000000       0.00000000       0.00000000       0.00000000       0.00000000
H        0.00000000       1.62013441      22.29121606        2       1.00000000       0.00000000       0.00000000       0.00000000       0.00000000       0.00000000       0.00000000
H        2.80615512       1.62013441      22.29121606        2       1.00000000       0.00000000       0.00000000       0.00000000       0.00000000       0.00000000       0.00000000