23
Lattice="5.612310241546866 0.0 0.0 0.0 4.860403243099165 0.0 0.0 0.0 44.58243212332868" Properties=species:S:1:pos:R:3:tags:I:1:masses:R:1:momenta:R:3:forces:R:3 KEmax=29.729789663399384 iter=50203 volume=1216.1236359717223 set_wall=T ns_energy=-15.142736182386129 last_walked_iter_clone=50093 energy=-15.377861729891158 stress="0.021091522954586817 -0.0019159516811337862 -0.0010258096774366566 -0.0019159516811337862 0.017824183937661213 0.0006502994072036254 -0.0010258096774366566 0.0006502994072036254 0.013075400286662514" pbc="T T F"
H        1.40307756       0.81006721      20.00000000        3       1.00000000       0.00000000       0.00000000       0.00000000       0.00000000       0.00000000       0.00000000
H        4.20923268       0.81006721      20.00000000        3       1.00000000       0.00000000       0.00000000       0.00000000       0.00000000       0.00000000       0.00000000
H        0.00000000       3.24026883      20.00000000        3       1.00000000       0.00000000       0.00000000       0.00000000       0.00000000       0.00000000       0.00000000
H        2.80615512       3.24026883      20.00000000        3       1.00000000       0.00000000       0.00000000       0.00000000       0.00000000       0.00000000       0.00000000
H        0.00000000       1.62013441      22.29121606        2       1.00000000       0.00000000       0.00000000       0.00000000       0.00000000       0.00000000       0.00000000
H        2.80615512       1.62013441      22.29121606        2       1.00000000       0.00000000       0.00000000       0.00000000       0.00000000       0.00000000       0.00000000
H        1.40307756       4.05033604      22.29121606        2       1.00000000       0.00000000       0.00000000       0.00000000       0.00000000       0.00000000       0.00000000
H        4.20923268       4.05033604      22.29121606        2       1.00000000       0.00000000       0.00000000       0.00000000       0.00000000       0.00000000       0.00000000
H        0.00000000       0.00000000      24.58243212        1       1.00000000       0.00000000       0.00000000       0.00000000       0.00000000       0.00000000       0.00000000
H        2.80615512       0.00000000      24.58243212        1       1.00000000       0.00000000       0.00000000       0.00000000       0.00000000       0.00000000       0.00000000
H        1.40307756       2.43020162      24.58243212        1       1.00000000       0.00000000       0.00000000       0.00000000       0.00000000       0.00000000       0.00000000
H        4.20923268       2.43020162      24.58243212        1       1.00000000       0.00000000       0.00000000       0.00000000       0.00000000       0.00000000       0.00000000
H        2.61675703       1.82760654      31.45541313        0       1.00000000       0.03088307      -0.22156254      -0.40311812      -0.06674467       0.03444217       0.04149437
H        1.30244826       2.47160117      29.20918983        0       1.00000000       0.02212501      -0.03832177      -0.04278098      -0.56385602       0.16983316       0.15458046
H       -0.08032517       3.21329785      26.85797659        0       1.00000000      -0.03428692       0.14736913      -0.00607339      -0.31151107      -0.17144290      -0.07125685
H        2.80932508       3.18545664      26.71810636        0       1.00000000      -0.08822204       0.04050507      -0.11497547      -0.16003316       0.14101325       0.04052194
H        5.47262086       4.87989996      29.08356639        0       1.00000000       0.00852937       0.07214318       0.09362434       0.46897073       0.18277841      -0.03667930
H        4.16726247       0.82504824      26.80935318        0       1.00000000      -0.03228507      -0.18438791       0.07259952      -0.18488309      -0.55968290       0.10661395
H        5.51162366       1.50845968      31.40450038        0       1.00000000       0.13685978      -0.02577588       0.04622763       0.16639526       0.04480199       0.36390872
H        4.07695873       2.47995747      29.05033332        0       1.00000000      -0.18148336       0.13441118       0.12447096      -0.10391682      -0.41951962      -0.30251170
H        2.70357043       4.86676117      28.96822092        0       1.00000000       0.29989210       0.15973729       0.09057469       0.28683606       0.02696313      -0.18567263
H        3.98058995       4.22534020      31.26709278        0       1.00000000       0.00525824      -0.06015178      -0.16961040       0.00175800       0.25957015      -0.22522049
H        1.23033237       0.81020486      26.82261332        0       1.00000000       0.01915459       0.11187915       0.17879775       0.50921128       0.06985157      -0.05529934
23
Lattice="5.612310241546866 0.0 0.0 0.0 4.860403243099165 0.0 0.0 0.0 44.58243212332868" Properties=species:S:1:pos:R:3:tags:I:1:masses:R:1:momenta:R:3:forces:R:3 KEmax=29.729789663399384 iter=50203 volume=1216.1236359717223 set_wall=T ns_energy=-15.15252990575044 last_walked_iter_clone=49928 energy=-15.377861729891158 stress="0.021091522954586817 -0.0019159516811337862 -0.0010258096774366566 -0.0019159516811337862 0.017824183937661213 0.0006502994072036254 -0.0010258096774366566 0.0006502994072036254 0.013075400286662514" pbc="T T F"
H        1.40307756       0.81006721      20.00000000        3       1.00000000       0.00000000       0.00000000       0.00000000       0.00000000       0.00000000       0.00000000
H        4.20923268       0.81006721      20.00000000        3       1.00000000       0.00000000       0.00000000       0.00000000       0.00000000       0.00000000       0.00000000
H        0.00000000       3.24026883      20.00000000        3       1.00000000       0.00000000       0.00000000       0.00000000       0.00000000       0.00000000       0.00000000
H        2.80615512       3.24026883      20.00000000        3       1.00000000       0.00000000       0.00000000       0.00000000       0.00000000       0.00000000       0.00000000
H        0.00000000       1.62013441      22.29121606        2       1.00000000       0.00000000       0.00000000       0.00000000       0.00000000       0.00000000       0.00000000
H        2.80615512       1.62013441      22.29121606        2       1.00000000       0.00000000       0.00000000       0.00000000       0.00000000       0.00000000       0.00000000
H        1.40307756       4.05033604      22.29121606        2       1.00000000       0.00000000       0.00000000       0.00000000       0.00000000       0.00000000       0.00000000
H        4.20923268       4.05033604      22.29121606        2       1.00000000       0.00000000       0.00000000       0.00000000       0.00000000       0.00000000       0.00000000
H        0.00000000       0.00000000      24.58243212        1       1.00000000       0.00000000       0.00000000       0.00000000       0.00000000       0.00000000       0.00000000
H        2.80615512       0.00000000      24.58243212        1       1.00000000       0.00000000       0.00000000       0.00000000       0.00000000       0.00000000       0.00000000
H        1.40307756       2.43020162      24.58243212        1       1.00000000       0.00000000       0.00000000       0.00000000       0.00000000       0.00000000       0.00000000
H        4.20923268       2.43020162      24.58243212        1       1.00000000       0.00000000       0.00000000       0.00000000       0.00000000       0.00000000       0.00000000
H       -0.24329545       3.32707685      26.82207354        0       1.00000000      -0.01568998       0.23931902       0.13231144      -0.06674467       0.03444217       0.04149437
H        5.45748471       4.83197152      28.93122289        0       1.00000000      -0.05804361       0.30196894      -0.05458066      -0.56385602       0.16983316       0.15458046
H        2.75204121       3.29481072      26.88053300        0       1.00000000       0.07838047       0.07745222       0.07088068      -0.31151107      -0.17144290      -0.07125685
H        1.27656863       0.77611316      26.85533704        0       1.00000000       0.00323400      -0.09381190       0.09977328      -0.16003316       0.14101325       0.04052194
H        2.68810201      -0.05978925      29.14732816        0       1.00000000      -0.03115891      -0.07338479      -0.04645174       0.46897073       0.18277841      -0.03667930
H        1.25378199       0.67927124      31.14428196        0       1.00000000       0.01729653      -0.17344958       0.09212603      -0.18488309      -0.55968290       0.10661395
H        4.13599920       0.64229126      31.42909437        0       1.00000000       0.00850985       0.06806668       0.01504007       0.16639526       0.04480199       0.36390872
H        4.10539041       2.38260485      29.20029162        0       1.00000000       0.00367868      -0.01361162      -0.23472669      -0.10391682      -0.41951962      -0.30251170
H        4.10340878       0.95030873      26.88502464        0       1.00000000       0.00782095      -0.08615101      -0.20752863       0.28683606       0.02696313      -0.18567263
H        2.64102786       3.07880460      31.37474638        0       1.00000000      -0.14424784      -0.18217600      -0.17368973       0.00175800       0.25957015      -0.22522049
H        1.32132198       2.52687850      29.03016057        0       1.00000000       0.07789515      -0.05201840      -0.20923638       0.50921128       0.06985157      -0.05529934
23
Lattice="5.612310241546866 0.0 0.0 0.0 4.860403243099165 0.0 0.0 0.0 44.58243212332868" Properties=species:S:1:pos:R:3:tags:I:1:masses:R:1:momenta:R:3:forces:R:3 KEmax=29.729789663399384 iter=50203 volume=1216.1236359717223 set_wall=T ns_energy=-15.154448084096762 last_walked_iter_clone=50202 energy=-15.377861729891158 stress="0.021091522954586817 -0.0019159516811337862 -0.0010258096774366566 -0.0019159516811337862 0.017824183937661213 0.0006502994072036254 -0.0010258096774366566 0.0006502994072036254 0.013075400286662514" pbc="T T F"
H        1.40307756       0.81006721      20.00000000        3       1.00000000       0.00000000       0.00000000       0.00000000       0.00000000       0.00000000       0.00000000
H        4.20923268       0.81006721      20.00000000        3       1.00000000       0.00000000       0.00000000       0.00000000       0.00000000       0.00000000       0.00000000
H        0.00000000       3.24026883      20.00000000        3       1.00000000       0.00000000       0.00000000       0.00000000       0.00000000       0.00000000       0.00000000
H        2.80615512       3.24026883      20.00000000        3       1.00000000       0.00000000       0.00000000       0.00000000       0.00000000       0.00000000       0.00000000
H        0.00000000       1.62013441      22.29121606        2       1.00000000       0.00000000       0.00000000       0.00000000       0.00000000       0.00000000       0.00000000
H        2.80615512       1.62013441      22.29121606        2       1.00000000       0.00000000       0.00000000       0.00000000       0.00000000       0.00000000       0.00000000
H        1.40307756       4.05033604      22.29121606        2       1.00000000       0.00000000       0.00000000       0.00000000       0.00000000       0.00000000       0.00000000
H        4.20923268       4.05033604      22.29121606        2       1.00000000       0.00000000       0.00000000       0.00000000       0.00000000       0.00000000       0.00000000
H        0.00000000       0.00000000      24.58243212        1       1.00000000       0.00000000       0.00000000       0.00000000       0.00000000       0.00000000       0.00000000
H        2.80615512       0.00000000      24.58243212        1       1.00000000       0.00000000       0.00000000       0.00000000       0.00000000       0.00000000       0.00000000
H        1.40307756       2.43020162      24.58243212        1       1.00000000       0.00000000       0.00000000       0.00000000       0.00000000       0.00000000       0.00000000
H        4.20923268       2.43020162      24.58243212        1       1.00000000       0.00000000       0.00000000       0.00000000       0.00000000       0.00000000       0.00000000
H        4.27173462       4.32474012      31.26091349        0       1.00000000       0.20800173      -0.13389522      -0.11148784      -0.06674467       0.03444217       0.04149437
H        0.06210753       0.40807026      29.01052250        0       1.00000000       0.11130543       0.05944225      -0.04508270      -0.56385602       0.16983316       0.15458046
H        0.12320033       3.34848318      26.78842754        0       1.00000000       0.09596113       0.11751123       0.10785740      -0.31151107      -0.17144290      -0.07125685
H        2.97144323       3.42403406      26.89440157        0       1.00000000       0.05382743       0.16232205      -0.00834125      -0.16003316       0.14101325       0.04052194
H        0.04857717       1.96645687      31.25970981        0       1.00000000      -0.05003989      -0.00794845       0.14707115       0.46897073       0.18277841      -0.03667930
H        4.27145454       0.99321139      26.83055117        0       1.00000000       0.03633986       0.07092889      -0.01873316      -0.18488309      -0.55968290       0.10661395
H        4.40440992       2.72687228      29.00511239        0       1.00000000      -0.15432508      -0.01332579       0.23998279       0.16639526       0.04480199       0.36390872
H        2.99803499       0.27310537      28.95985628        0       1.00000000      -0.00963510       0.06829212       0.11415570      -0.10391682      -0.41951962      -0.30251170
H        1.48371934       2.81542348      29.16062387        0       1.00000000       0.25422288       0.05335660       0.21607461       0.28683606       0.02696313      -0.18567263
H        1.54526121       4.56355929      31.28061425        0       1.00000000      -0.15782767      -0.15264686       0.10211922       0.00175800       0.25957015      -0.22522049
H        1.52943862       1.02242443      26.73494613        0       1.00000000      -0.04297597       0.10307534      -0.06782041       0.50921128       0.06985157      -0.05529934
23
Lattice="5.612310241546866 0.0 0.0 0.0 4.860403243099165 0.0 0.0 0.0 44.58243212332868" Properties=species:S:1:pos:R:3:tags:I:1:masses:R:1:momenta:R:3:forces:R:3 KEmax=29.729789663399384 iter=50203 volume=1216.1236359717223 set_wall=T ns_energy=-15.13818607624188 last_walked_iter_clone=49572 energy=-15.377861729891158 stress="0.021091522954586817 -0.0019159516811337862 -0.0010258096774366566 -0.0019159516811337862 0.017824183937661213 0.0006502994072036254 -0.0010258096774366566 0.0006502994072036254 0.013075400286662514" pbc="T T F"
H        1.40307756       0.81006721      20.00000000        3       1.00000000       0.00000000       0.00000000       0.00000000       0.00000000       0.00000000       0.00000000
H        4.20923268       0.81006721      20.00000000        3       1.00000000       0.00000000       0.00000000       0.00000000       0.00000000       0.00000000       0.00000000
H        0.00000000       3.24026883      20.00000000        3       1.00000000       0.00000000       0.00000000       0.00000000       0.00000000       0.00000000       0.00000000
H        2.80615512       3.24026883      20.00000000        3       1.00000000       0.00000000       0.00000000       0.00000000       0.00000000       0.00000000       0.00000000
H        0.00000000       1.62013441      22.29121606        2       1.00000000       0.00000000       0.00000000       0.00000000       0.00000000       0.00000000       0.00000000
H        2.80615512       1.62013441      22.29121606        2       1.00000000       0.00000000       0.00000000       0.00000000       0.00000000       0.00000000       0.00000000
H        1.40307756       4.05033604      22.29121606        2       1.00000000       0.00000000       0.00000000       0.00000000       0.00000000       0.00000000       0.00000000
H        4.20923268       4.05033604      22.29121606        2       1.00000000       0.00000000       0.00000000       0.00000000       0.00000000       0.00000000       0.00000000
H        0.00000000       0.00000000      24.58243212        1       1.00000000       0.00000000       0.00000000       0.00000000       0.00000000       0.00000000       0.00000000
H        2.80615512       0.00000000      24.58243212        1       1.00000000       0.00000000       0.00000000       0.00000000       0.00000000       0.00000000       0.00000000
H        1.40307756       2.43020162      24.58243212        1       1.00000000       0.00000000       0.00000000       0.00000000       0.00000000       0.00000000       0.00000000
H        4.20923268       2.43020162      24.58243212        1       1.00000000       0.00000000       0.00000000       0.00000000       0.00000000       0.00000000       0.00000000
H        2.91657470       1.78478665      31.36301224        0       1.00000000       0.09355439       0.15568289      -0.07752366      -0.06674467       0.03444217       0.04149437
H        1.54908330       2.51730022      29.06685182        0       1.00000000       0.03071528      -0.07713722       0.08226793      -0.56385602       0.16983316       0.15458046
H        4.27769020       1.07023196      26.96102635        0       1.00000000      -0.17450788       0.16234107      -0.00856047      -0.31151107      -0.17144290      -0.07125685
H        1.34147902       0.95400020      26.83448150        0       1.00000000       0.17764462      -0.04857271       0.10798476      -0.16003316       0.14101325       0.04052194
H        4.40213788       4.25884350      31.41961861        0       1.00000000       0.16522731       0.20403851       0.12512685       0.46897073       0.18277841      -0.03667930
H        2.91173251       3.43719876      26.78467446        0       1.00000000       0.22639428       0.10548412      -0.08424274      -0.18488309      -0.55968290       0.10661395
H        0.18180217       0.16833936      29.24129057        0       1.00000000       0.04246936      -0.07464325       0.05787938       0.16639526       0.04480199       0.36390872
H        4.34712488       2.60561437      29.06621204        0       1.00000000       0.06914965      -0.08354682       0.02793513      -0.10391682      -0.41951962      -0.30251170
H        3.01835465       0.11552805      29.09494690        0       1.00000000      -0.02702830      -0.00472124       0.15488139       0.28683606       0.02696313      -0.18567263
H        0.15496455       1.91393316      31.29138991        0       1.00000000       0.10669471       0.10611439      -0.24086006       0.00175800       0.25957015      -0.22522049
H        0.05773040       3.35417456      26.88760843        0       1.00000000      -0.04065743       0.35948402       0.14008909       0.50921128       0.06985157      -0.05529934
23
Lattice="5.612310241546866 0.0 0.0 0.0 4.860403243099165 0.0 0.0 0.0 44.58243212332868" Properties=species:S:1:pos:R:3:tags:I:1:masses:R:1:momenta:R:3:forces:R:3 KEmax=29.729789663399384 iter=50203 volume=1216.1236359717223 set_wall=T ns_energy=-15.163307644380495 last_walked_iter_clone=49902 energy=-15.377861729891158 stress="0.021091522954586817 -0.0019159516811337862 -0.0010258096774366566 -0.0019159516811337862 0.017824183937661213 0.0006502994072036254 -0.0010258096774366566 0.0006502994072036254 0.013075400286662514" pbc="T T F"
H        1.40307756       0.81006721      20.00000000        3       1.00000000       0.00000000       0.00000000       0.00000000       0.00000000       0.00000000       0.00000000
H        4.20923268       0.81006721      20.00000000        3       1.00000000       0.00000000       0.00000000       0.00000000       0.00000000       0.00000000       0.00000000
H        0.00000000       3.24026883      20.00000000        3       1.00000000       0.00000000       0.00000000       0.00000000       0.00000000       0.00000000       0.00000000
H        2.80615512       3.24026883      20.00000000        3       1.00000000       0.00000000       0.00000000       0.00000000       0.00000000       0.00000000       0.00000000
H        0.00000000       1.62013441      22.29121606        2       1.00000000       0.00000000       0.00000000       0.00000000       0.00000000       0.00000000       0.00000000
H        2.80615512       1.62013441      22.29121606        2       1.00000000       0.00000000       0.00000000       0.00000000       0.00000000       0.00000000       0.00000000
H        1.40307756       4.05033604      22.29121606        2       1.00000000       0.00000000       0.00000000       0.00000000       0.00000000       0.00000000       0.00000000
H        4.20923268       4.05033604      22.29121606        2       1.00000000       0.00000000       0.00000000       0.00000000       0.00000000       0.00000000       0.00000000
H        0.00000000       0.00000000      24.58243212        1       1.00000000       0.00000000       0.00000000       0.00000000       0.00000000       0.00000000       0.00000000
H        2.80615512       0.00000000      24.58243212        1       1.00000000       0.00000000       0.00000000       0.00000000       0.00000000       0.00000000       0.00000000
H        1.40307756       2.43020162      24.58243212        1       1.00000000       0.00000000       0.00000000       0.00000000       0.00000000       0.00000000       0.00000000
H        4.20923268       2.43020162      24.58243212        1       1.00000000       0.00000000       0.00000000       0.00000000       0.00000000       0.00000000       0.00000000
H        0.09989919       3.17639707      31.26968620        0       1.00000000      -0.00617616       0.11257979      -0.05277067      -0.06674467       0.03444217       0.04149437
H        4.38986868       2.30224808      29.12693712        0       1.00000000       0.26484284      -0.00439039       0.01689708      -0.56385602       0.16983316       0.15458046
H        4.20783726       0.93877065      26.85549093        0       1.00000000       0.15336264      -0.00086573       0.09559090      -0.31151107      -0.17144290      -0.07125685
H        1.39336866       0.83931522      26.78693670        0       1.00000000       0.08721345      -0.12406235      -0.17285646      -0.16003316       0.14101325       0.04052194
H        2.98483769       4.85439327      29.13410503        0       1.00000000       0.15181405       0.04181861       0.01276388       0.46897073       0.18277841      -0.03667930
H        2.89851982       3.33065989      26.79873374        0       1.00000000      -0.07526958       0.10740308       0.13079954      -0.18488309      -0.55968290       0.10661395
H        2.91506301       3.15983859      31.25961567        0       1.00000000       0.19957292      -0.05075913      -0.21431138       0.16639526       0.04480199       0.36390872
H        1.68172636       2.32489041      29.08978552        0       1.00000000      -0.10032536      -0.17280305       0.06869212      -0.10391682      -0.41951962      -0.30251170
H        0.03939660       4.88782927      29.05096772        0       1.00000000       0.10760255       0.13102990       0.05464901       0.28683606       0.02696313      -0.18567263
H        1.65520665       0.68551565      31.44628364        0       1.00000000       0.28005575      -0.08767515      -0.06161773       0.00175800       0.25957015      -0.22522049
H        5.75754518       3.22544566      26.88876940        0       1.00000000       0.13237994       0.00996950      -0.12748543       0.50921128       0.06985157      -0.05529934
23
Lattice="5.612310241546866 0.0 0.0 0.0 4.860403243099165 0.0 0.0 0.0 44.58243212332868" Properties=species:S:1:pos:R:3:tags:I:1:masses:R:1:momenta:R:3:forces:R:3 KEmax=29.729789663399384 iter=50203 volume=1216.1236359717223 set_wall=T ns_energy=-15.137428335520251 last_walked_iter_clone=50103 energy=-15.377861729891158 stress="0.021091522954586817 -0.0019159516811337862 -0.0010258096774366566 -0.0019159516811337862 0.017824183937661213 0.0006502994072036254 -0.0010258096774366566 0.0006502994072036254 0.013075400286662514" pbc="T T F"
H        1.40307756       0.81006721      20.00000000        3       1.00000000       0.00000000       0.00000000       0.00000000       0.00000000       0.00000000       0.00000000
H        4.20923268       0.81006721      20.00000000        3       1.00000000       0.00000000       0.00000000       0.00000000       0.00000000       0.00000000       0.00000000
H        0.00000000       3.24026883      20.00000000        3       1.00000000       0.00000000       0.00000000       0.00000000       0.00000000       0.00000000       0.00000000
H        2.80615512       3.24026883      20.00000000        3       1.00000000       0.00000000       0.00000000       0.00000000       0.00000000       0.00000000       0.00000000
H        0.00000000       1.62013441      22.29121606        2       1.00000000       0.00000000       0.00000000       0.00000000       0.00000000       0.00000000       0.00000000
H        2.80615512       1.62013441      22.29121606        2       1.00000000       0.00000000       0.00000000       0.00000000       0.00000000       0.00000000       0.00000000
H        1.40307756       4.05033604      22.29121606        2       1.00000000       0.00000000       0.00000000       0.00000000       0.00000000       0.00000000       0.00000000
H        4.20923268       4.05033604      22.29121606        2       1.00000000       0.00000000       0.00000000       0.00000000       0.00000000       0.00000000       0.00000000
H        0.00000000       0.00000000      24.58243212        1       1.00000000       0.00000000       0.00000000       0.00000000       0.00000000       0.00000000       0.00000000
H        2.80615512       0.00000000      24.58243212        1       1.00000000       0.00000000       0.00000000       0.00000000       0.00000000       0.00000000       0.00000000
H        1.40307756       2.43020162      24.58243212        1       1.00000000       0.00000000       0.00000000       0.00000000       0.00000000       0.00000000       0.00000000
H        4.20923268       2.43020162      24.58243212        1       1.00000000       0.00000000       0.00000000       0.00000000       0.00000000       0.00000000       0.00000000
H        4.32166313       2.12872720      29.02389194        0       1.00000000       0.09575027      -0.06882008       0.08486083      -0.06674467       0.03444217       0.04149437
H        0.15863745       4.68799149      28.97664919        0       1.00000000       0.02600394       0.16323866      -0.11080253      -0.56385602       0.16983316       0.15458046
H        4.41490711       3.91258772      31.26801890        0       1.00000000      -0.07426310       0.06807880       0.14322374      -0.31151107      -0.17144290      -0.07125685
H        1.67280327       4.06283522      31.16993751        0       1.00000000       0.11468813       0.02684211      -0.01916518      -0.16003316       0.14101325       0.04052194
H        1.63625334       2.35931995      28.98161189        0       1.00000000       0.19496892      -0.11078019      -0.11812336       0.46897073       0.18277841      -0.03667930
H        2.83072873       3.19220967      26.70986290        0       1.00000000       0.04330417      -0.18424617       0.12132513      -0.18488309      -0.55968290       0.10661395
H        1.36041514       0.76408643      26.74492748        0       1.00000000       0.10901076      -0.15065101      -0.08601519       0.16639526       0.04480199       0.36390872
H        2.95919988       1.54048907      31.32243844        0       1.00000000       0.15153615       0.18112257      -0.19564946      -0.10391682      -0.41951962      -0.30251170
H        4.30146587       0.73592667      26.74894176        0       1.00000000       0.09351402      -0.02526820       0.03626477       0.28683606       0.02696313      -0.18567263
H        2.97205517       4.72104283      28.79868797        0       1.00000000       0.07893199      -0.03913586      -0.18319980       0.00175800       0.25957015      -0.22522049
H        0.05826640       3.09448746      26.81008547        0       1.00000000      -0.37270900      -0.03240942       0.02908705       0.50921128       0.06985157      -0.05529934
23
Lattice="5.612310241546866 0.0 0.0 0.0 4.860403243099165 0.0 0.0 0.0 44.58243212332868" Properties=species:S:1:pos:R:3:tags:I:1:masses:R:1:momenta:R:3:forces:R:3 KEmax=29.729789663399384 iter=50203 volume=1216.1236359717223 set_wall=T ns_energy=-15.166475201210483 last_walked_iter_clone=50134 energy=-15.377861729891158 stress="0.021091522954586817 -0.0019159516811337862 -0.0010258096774366566 -0.0019159516811337862 0.017824183937661213 0.0006502994072036254 -0.0010258096774366566 0.0006502994072036254 0.013075400286662514" pbc="T T F"
H        1.40307756       0.81006721      20.00000000        3       1.00000000       0.00000000       0.00000000       0.00000000       0.00000000       0.00000000       0.00000000
H        4.20923268       0.81006721      20.00000000        3       1.00000000       0.00000000       0.00000000       0.00000000       0.00000000       0.00000000       0.00000000
H        0.00000000       3.24026883      20.00000000        3       1.00000000       0.00000000       0.00000000       0.00000000       0.00000000       0.00000000       0.00000000
H        2.80615512       3.24026883      20.00000000        3       1.00000000       0.00000000       0.00000000       0.00000000       0.00000000       0.00000000       0.00000000
H        0.00000000       1.62013441      22.29121606        2       1.00000000       0.00000000       0.00000000       0.00000000       0.00000000       0.00000000       0.00000000