18
Lattice="5.612310241546866 0.0 0.0 0.0 4.860403243099165 0.0 0.0 0.0 24.582432123328676" Properties=species:S:1:pos:R:3:tags:I:1:masses:R:1:momenta:R:3:forces:R:3 KEmax=23.26679191048647 iter=149784 volume=670.5618179858607 ns_energy=-11.638031573505344 last_walked_iter_clone=149479 energy=-11.638031573989124 stress="0.022594199070454662 -2.470551752549526e-08 -7.755800781607589e-08 -2.470551752549526e-08 0.02270838028109363 -2.089658198875288e-07 -7.755800781607589e-08 -2.089658198875288e-07 0.012283072924462374" pbc="T T F"
H        1.40307756       0.81006721      10.00000000        3       1.00000000       0.00000000       0.00000000       0.00000000       0.00000000       0.00000000       0.00000000
H        4.20923268       0.81006721      10.00000000        3       1.00000000       0.00000000       0.00000000       0.00000000       0.00000000       0.00000000       0.00000000
H        0.00000000       3.24026883      10.00000000        3       1.00000000       0.00000000       0.00000000       0.00000000       0.00000000       0.00000000       0.00000000
H        2.80615512       3.24026883      10.00000000        3       1.00000000       0.00000000       0.00000000       0.00000000       0.00000000       0.00000000       0.00000000
H        0.00000000       1.62013441      12.29121606        2       1.00000000       0.00000000       0.00000000       0.00000000       0.00000000       0.00000000       0.00000000
H        2.80615512       1.62013441      12.29121606        2       1.00000000       0.00000000       0.00000000       0.00000000       0.00000000       0.00000000       0.00000000
H        1.40307756       4.05033604      12.29121606        2       1.00000000       0.00000000       0.00000000       0.00000000       0.00000000       0.00000000       0.00000000
H        4.20923268       4.05033604      12.29121606        2       1.00000000       0.00000000       0.00000000       0.00000000       0.00000000       0.00000000       0.00000000
H        0.00000000       0.00000000      14.58243212        1       1.00000000       0.00000000       0.00000000       0.00000000       0.00000000       0.00000000       0.00000000
H        2.80615512       0.00000000      14.58243212        1       1.00000000       0.00000000       0.00000000       0.00000000       0.00000000       0.00000000       0.00000000
H        1.40307756       2.43020162      14.58243212        1       1.00000000       0.00000000       0.00000000       0.00000000       0.00000000       0.00000000       0.00000000
H        4.20923268       2.43020162      14.58243212        1       1.00000000       0.00000000       0.00000000       0.00000000       0.00000000       0.00000000       0.00000000
H        1.39313739       4.05018194      16.81113088        0       1.00000000       0.00000123      -0.00001380       0.00000200      -0.00000037      -0.00000266       0.00001529
H       -0.00000016       1.62014817       7.77137157        0       1.00000000       0.00000270       0.00000460      -0.00000911      -0.00003015       0.00002514      -0.00002392
H        2.81606668       1.61998028      16.81113624        0       1.00000000      -0.00001565      -0.00000119      -0.00000631       0.00000720       0.00002390      -0.00000821
H        2.80615430       1.62013266       7.77136877        0       1.00000000      -0.00000920       0.00000317      -0.00000978       0.00003085      -0.00002325       0.00000152
H        1.40308292       4.05033816       7.77137119        0       1.00000000       0.00000188      -0.00000589      -0.00000366      -0.00000377       0.00000506      -0.00002660
H        4.20924303       4.05033678       7.77137096        0       1.00000000       0.00001604      -0.00001726       0.00001043       0.00000133      -0.00000837       0.00000070
18
Lattice="5.612310241546866 0.0 0.0 0.0 4.860403243099165 0.0 0.0 0.0 24.582432123328676" Properties=species:S:1:pos:R:3:tags:I:1:masses:R:1:momenta:R:3:forces:R:3 KEmax=23.26679191048647 iter=149784 volume=670.5618179858607 ns_energy=-11.638031573439802 last_walked_iter_clone=149496 energy=-11.638031573989124 stress="0.022594199070454662 -2.470551752549526e-08 -7.755800781607589e-08 -2.470551752549526e-08 0.02270838028109363 -2.089658198875288e-07 -7.755800781607589e-08 -2.089658198875288e-07 0.012283072924462374" pbc="T T F"
H        1.40307756       0.81006721      10.00000000        3       1.00000000       0.00000000       0.00000000       0.00000000       0.00000000       0.00000000       0.00000000
H        4.20923268       0.81006721      10.00000000        3       1.00000000       0.00000000       0.00000000       0.00000000       0.00000000       0.00000000       0.00000000
H        0.00000000       3.24026883      10.00000000        3       1.00000000       0.00000000       0.00000000       0.00000000       0.00000000       0.00000000       0.00000000
H        2.80615512       3.24026883      10.00000000        3       1.00000000       0.00000000       0.00000000       0.00000000       0.00000000       0.00000000       0.00000000
H        0.00000000       1.62013441      12.29121606        2       1.00000000       0.00000000       0.00000000       0.00000000       0.00000000       0.00000000       0.00000000
H        2.80615512       1.62013441      12.29121606        2       1.00000000       0.00000000       0.00000000       0.00000000       0.00000000       0.00000000       0.00000000
H        1.40307756       4.05033604      12.29121606        2       1.00000000       0.00000000       0.00000000       0.00000000       0.00000000       0.00000000       0.00000000
H        4.20923268       4.05033604      12.29121606        2       1.00000000       0.00000000       0.00000000       0.00000000       0.00000000       0.00000000       0.00000000
H        0.00000000       0.00000000      14.58243212        1       1.00000000       0.00000000       0.00000000       0.00000000       0.00000000       0.00000000       0.00000000
H        2.80615512       0.00000000      14.58243212        1       1.00000000       0.00000000       0.00000000       0.00000000       0.00000000       0.00000000       0.00000000
H        1.40307756       2.43020162      14.58243212        1       1.00000000       0.00000000       0.00000000       0.00000000       0.00000000       0.00000000       0.00000000
H        4.20923268       2.43020162      14.58243212        1       1.00000000       0.00000000       0.00000000       0.00000000       0.00000000       0.00000000       0.00000000
H        1.39316171       4.05019521      16.81113129        0       1.00000000       0.00001065       0.00001623      -0.00000692      -0.00000037      -0.00000266       0.00001529
H        5.61231611       1.62013842       7.77137519        0       1.00000000      -0.00000890      -0.00000492       0.00000172      -0.00003015       0.00002514      -0.00002392
H        2.81609062       1.62000265      16.81113649        0       1.00000000      -0.00001261       0.00000533       0.00002214       0.00000720       0.00002390      -0.00000821
H        2.80615840       1.62013609       7.77137224        0       1.00000000       0.00000086      -0.00001587      -0.00001009       0.00003085      -0.00002325       0.00000152
H        1.40308372       4.05033404       7.77137435        0       1.00000000       0.00000470       0.00001047       0.00000046      -0.00000377       0.00000506      -0.00002660
H        4.20923881       4.05034006       7.77136995        0       1.00000000       0.00000638       0.00001437       0.00000123       0.00000133      -0.00000837       0.00000070
18
Lattice="5.612310241546866 0.0 0.0 0.0 4.860403243099165 0.0 0.0 0.0 24.582432123328676" Properties=species:S:1:pos:R:3:tags:I:1:masses:R:1:momenta:R:3:forces:R:3 KEmax=23.26679191048647 iter=149784 volume=670.5618179858607 ns_energy=-11.638031573418775 last_walked_iter_clone=149765 energy=-11.638031573989124 stress="0.022594199070454662 -2.470551752549526e-08 -7.755800781607589e-08 -2.470551752549526e-08 0.02270838028109363 -2.089658198875288e-07 -7.755800781607589e-08 -2.089658198875288e-07 0.012283072924462374" pbc="T T F"
H        1.40307756       0.81006721      10.00000000        3       1.00000000       0.00000000       0.00000000       0.00000000       0.00000000       0.00000000       0.00000000
H        4.20923268       0.81006721      10.00000000        3       1.00000000       0.00000000       0.00000000       0.00000000       0.00000000       0.00000000       0.00000000
H        0.00000000       3.24026883      10.00000000        3       1.00000000       0.00000000       0.00000000       0.00000000       0.00000000       0.00000000       0.00000000
H        2.80615512       3.24026883      10.00000000        3       1.00000000       0.00000000       0.00000000       0.00000000       0.00000000       0.00000000       0.00000000
H        0.00000000       1.62013441      12.29121606        2       1.00000000       0.00000000       0.00000000       0.00000000       0.00000000       0.00000000       0.00000000
H        2.80615512       1.62013441      12.29121606        2       1.00000000       0.00000000       0.00000000       0.00000000       0.00000000       0.00000000       0.00000000
H        1.40307756       4.05033604      12.29121606        2       1.00000000       0.00000000       0.00000000       0.00000000       0.00000000       0.00000000       0.00000000
H        4.20923268       4.05033604      12.29121606        2       1.00000000       0.00000000       0.00000000       0.00000000       0.00000000       0.00000000       0.00000000
H        0.00000000       0.00000000      14.58243212        1       1.00000000       0.00000000       0.00000000       0.00000000       0.00000000       0.00000000       0.00000000
H        2.80615512       0.00000000      14.58243212        1       1.00000000       0.00000000       0.00000000       0.00000000       0.00000000       0.00000000       0.00000000
H        1.40307756       2.43020162      14.58243212        1       1.00000000       0.00000000       0.00000000       0.00000000       0.00000000       0.00000000       0.00000000
H        4.20923268       2.43020162      14.58243212        1       1.00000000       0.00000000       0.00000000       0.00000000       0.00000000       0.00000000       0.00000000
H        1.39314100       4.05018425      16.81112636        0       1.00000000      -0.00001105      -0.00000590       0.00000501      -0.00000037      -0.00000266       0.00001529
H        5.61230113       1.62013580       7.77136656        0       1.00000000      -0.00000589      -0.00001209      -0.00001464      -0.00003015       0.00002514      -0.00002392
H        2.81610283       1.61997704      16.81113481        0       1.00000000      -0.00000641      -0.00001945       0.00000923       0.00000720       0.00002390      -0.00000821
H        2.80613843       1.62014681       7.77137190        0       1.00000000       0.00000352      -0.00000176      -0.00001179       0.00003085      -0.00002325       0.00000152
H        1.40306492       4.05034668       7.77137516        0       1.00000000      -0.00000492       0.00000258      -0.00000537      -0.00000377       0.00000506      -0.00002660
H        4.20921718       4.05033997       7.77136937        0       1.00000000      -0.00000150       0.00000170       0.00000113       0.00000133      -0.00000837       0.00000070
18
Lattice="5.612310241546866 0.0 0.0 0.0 4.860403243099165 0.0 0.0 0.0 24.582432123328676" Properties=species:S:1:pos:R:3:tags:I:1:masses:R:1:momenta:R:3:forces:R:3 KEmax=23.26679191048647 iter=149784 volume=670.5618179858607 ns_energy=-11.638031573471153 last_walked_iter_clone=149538 energy=-11.638031573989124 stress="0.022594199070454662 -2.470551752549526e-08 -7.755800781607589e-08 -2.470551752549526e-08 0.02270838028109363 -2.089658198875288e-07 -7.755800781607589e-08 -2.089658198875288e-07 0.012283072924462374" pbc="T T F"
H        1.40307756       0.81006721      10.00000000        3       1.00000000       0.00000000       0.00000000       0.00000000       0.00000000       0.00000000       0.00000000
H        4.20923268       0.81006721      10.00000000        3       1.00000000       0.00000000       0.00000000       0.00000000       0.00000000       0.00000000       0.00000000
H        0.00000000       3.24026883      10.00000000        3       1.00000000       0.00000000       0.00000000       0.00000000       0.00000000       0.00000000       0.00000000
H        2.80615512       3.24026883      10.00000000        3       1.00000000       0.00000000       0.00000000       0.00000000       0.00000000       0.00000000       0.00000000
H        0.00000000       1.62013441      12.29121606        2       1.00000000       0.00000000       0.00000000       0.00000000       0.00000000       0.00000000       0.00000000
H        2.80615512       1.62013441      12.29121606        2       1.00000000       0.00000000       0.00000000       0.00000000       0.00000000       0.00000000       0.00000000
H        1.40307756       4.05033604      12.29121606        2       1.00000000       0.00000000       0.00000000       0.00000000       0.00000000       0.00000000       0.00000000
H        4.20923268       4.05033604      12.29121606        2       1.00000000       0.00000000       0.00000000       0.00000000       0.00000000       0.00000000       0.00000000
H        0.00000000       0.00000000      14.58243212        1       1.00000000       0.00000000       0.00000000       0.00000000       0.00000000       0.00000000       0.00000000
H        2.80615512       0.00000000      14.58243212        1       1.00000000       0.00000000       0.00000000       0.00000000       0.00000000       0.00000000       0.00000000
H        1.40307756       2.43020162      14.58243212        1       1.00000000       0.00000000       0.00000000       0.00000000       0.00000000       0.00000000       0.00000000
H        4.20923268       2.43020162      14.58243212        1       1.00000000       0.00000000       0.00000000       0.00000000       0.00000000       0.00000000       0.00000000
H        1.39314259       4.05019004      16.81112666        0       1.00000000      -0.00001481       0.00000267       0.00000263      -0.00000037      -0.00000266       0.00001529
H        5.61229411       1.62014050       7.77137098        0       1.00000000       0.00000855       0.00001445       0.00000822      -0.00003015       0.00002514      -0.00002392
H        2.81607724       1.61998975      16.81112553        0       1.00000000      -0.00000702       0.00001235      -0.00000506       0.00000720       0.00002390      -0.00000821
H        2.80613468       1.62013951       7.77136431        0       1.00000000       0.00000073       0.00001304      -0.00000726       0.00003085      -0.00002325       0.00000152
H        1.40305795       4.05033544       7.77137184        0       1.00000000       0.00000115       0.00000709       0.00001607      -0.00000377       0.00000506      -0.00002660
H        4.20921448       4.05033187       7.77136842        0       1.00000000       0.00000180      -0.00000580       0.00000802       0.00000133      -0.00000837       0.00000070
18
Lattice="5.612310241546866 0.0 0.0 0.0 4.860403243099165 0.0 0.0 0.0 24.582432123328676" Properties=species:S:1:pos:R:3:tags:I:1:masses:R:1:momenta:R:3:forces:R:3 KEmax=23.26679191048647 iter=149784 volume=670.5618179858607 ns_energy=-11.638031573433341 last_walked_iter_clone=149725 energy=-11.638031573989124 stress="0.022594199070454662 -2.470551752549526e-08 -7.755800781607589e-08 -2.470551752549526e-08 0.02270838028109363 -2.089658198875288e-07 -7.755800781607589e-08 -2.089658198875288e-07 0.012283072924462374" pbc="T T F"
H        1.40307756       0.81006721      10.00000000        3       1.00000000       0.00000000       0.00000000       0.00000000       0.00000000       0.00000000       0.00000000
H        4.20923268       0.81006721      10.00000000        3       1.00000000       0.00000000       0.00000000       0.00000000       0.00000000       0.00000000       0.00000000
H        0.00000000       3.24026883      10.00000000        3       1.00000000       0.00000000       0.00000000       0.00000000       0.00000000       0.00000000       0.00000000
H        2.80615512       3.24026883      10.00000000        3       1.00000000       0.00000000       0.00000000       0.00000000       0.00000000       0.00000000       0.00000000
H        0.00000000       1.62013441      12.29121606        2       1.00000000       0.00000000       0.00000000       0.00000000       0.00000000       0.00000000       0.00000000
H        2.80615512       1.62013441      12.29121606        2       1.00000000       0.00000000       0.00000000       0.00000000       0.00000000       0.00000000       0.00000000
H        1.40307756       4.05033604      12.29121606        2       1.00000000       0.00000000       0.00000000       0.00000000       0.00000000       0.00000000       0.00000000
H        4.20923268       4.05033604      12.29121606        2       1.00000000       0.00000000       0.00000000       0.00000000       0.00000000       0.00000000       0.00000000
H        0.00000000       0.00000000      14.58243212        1       1.00000000       0.00000000       0.00000000       0.00000000       0.00000000       0.00000000       0.00000000
H        2.80615512       0.00000000      14.58243212        1       1.00000000       0.00000000       0.00000000       0.00000000       0.00000000       0.00000000       0.00000000
H        1.40307756       2.43020162      14.58243212        1       1.00000000       0.00000000       0.00000000       0.00000000       0.00000000       0.00000000       0.00000000
H        4.20923268       2.43020162      14.58243212        1       1.00000000       0.00000000       0.00000000       0.00000000       0.00000000       0.00000000       0.00000000
H        1.39313780       4.05018178      16.81112088        0       1.00000000       0.00001480       0.00000337      -0.00000175      -0.00000037      -0.00000266       0.00001529
H       -0.00000890       1.62013699       7.77136056        0       1.00000000       0.00000079       0.00000346       0.00000377      -0.00003015       0.00002514      -0.00002392
H        2.81607925       1.61998735      16.81114012        0       1.00000000      -0.00000910       0.00000759      -0.00000071       0.00000720       0.00002390      -0.00000821
H        2.80615694       1.62013022       7.77137270        0       1.00000000       0.00000151      -0.00002653       0.00000728       0.00003085      -0.00002325       0.00000152
H        1.40307077       4.05033918       7.77136980        0       1.00000000      -0.00000664      -0.00000249      -0.00000621      -0.00000377       0.00000506      -0.00002660
H        4.20923211       4.05033685       7.77137581        0       1.00000000       0.00000592       0.00001287       0.00000322       0.00000133      -0.00000837       0.00000070
18
Lattice="5.612310241546866 0.0 0.0 0.0 4.860403243099165 0.0 0.0 0.0 24.582432123328676" Properties=species:S:1:pos:R:3:tags:I:1:masses:R:1:momenta:R:3:forces:R:3 KEmax=23.26679191048647 iter=149784 volume=670.5618179858607 ns_energy=-11.638031573413544 last_walked_iter_clone=149656 energy=-11.638031573989124 stress="0.022594199070454662 -2.470551752549526e-08 -7.755800781607589e-08 -2.470551752549526e-08 0.02270838028109363 -2.089658198875288e-07 -7.755800781607589e-08 -2.089658198875288e-07 0.012283072924462374" pbc="T T F"
H        1.40307756       0.81006721      10.00000000        3       1.00000000       0.00000000       0.00000000       0.00000000       0.00000000       0.00000000       0.00000000
H        4.20923268       0.81006721      10.00000000        3       1.00000000       0.00000000       0.00000000       0.00000000       0.00000000       0.00000000       0.00000000
H        0.00000000       3.24026883      10.00000000        3       1.00000000       0.00000000       0.00000000       0.00000000       0.00000000       0.00000000       0.00000000
H        2.80615512       3.24026883      10.00000000        3       1.00000000       0.00000000       0.00000000       0.00000000       0.00000000       0.00000000       0.00000000
H        0.00000000       1.62013441      12.29121606        2       1.00000000       0.00000000       0.00000000       0.00000000       0.00000000       0.00000000       0.00000000
H        2.80615512       1.62013441      12.29121606        2       1.00000000       0.00000000       0.00000000       0.00000000       0.00000000       0.00000000       0.00000000
H        1.40307756       4.05033604      12.29121606        2       1.00000000       0.00000000       0.00000000       0.00000000       0.00000000       0.00000000       0.00000000
H        4.20923268       4.05033604      12.29121606        2       1.00000000       0.00000000       0.00000000       0.00000000       0.00000000       0.00000000       0.00000000
H        0.00000000       0.00000000      14.58243212        1       1.00000000       0.00000000       0.00000000       0.00000000       0.00000000       0.00000000       0.00000000
H        2.80615512       0.00000000      14.58243212        1       1.00000000       0.00000000       0.00000000       0.00000000       0.00000000       0.00000000       0.00000000
H        1.40307756       2.43020162      14.58243212        1       1.00000000       0.00000000       0.00000000       0.00000000       0.00000000       0.00000000       0.00000000
H        4.20923268       2.43020162      14.58243212        1       1.00000000       0.00000000       0.00000000       0.00000000       0.00000000       0.00000000       0.00000000
H        1.39314418       4.05018221      16.81113128        0       1.00000000      -0.00000220      -0.00000151       0.00001316      -0.00000037      -0.00000266       0.00001529
H        0.00000188       1.62012404       7.77135793        0       1.00000000       0.00001451      -0.00000264       0.00001845      -0.00003015       0.00002514      -0.00002392
H        2.81609865       1.61998898      16.81114035        0       1.00000000       0.00000262       0.00001131      -0.00000864       0.00000720       0.00002390      -0.00000821
H        2.80615873       1.62013026       7.77136459        0       1.00000000      -0.00000483       0.00000288      -0.00001092       0.00003085      -0.00002325       0.00000152
H        1.40307597       4.05033068       7.77138083        0       1.00000000      -0.00000763      -0.00000729      -0.00000093      -0.00000377       0.00000506      -0.00002660
H        4.20923183       4.05032997       7.77136062        0       1.00000000      -0.00000978       0.00001528       0.00000084       0.00000133      -0.00000837       0.00000070
18
Lattice="5.612310241546866 0.0 0.0 0.0 4.860403243099165 0.0 0.0 0.0 24.582432123328676" Properties=species:S:1:pos:R:3:tags:I:1:masses:R:1:momenta:R:3:forces:R:3 KEmax=23.26679191048647 iter=149784 volume=670.5618179858607 ns_energy=-11.638031573414551 last_walked_iter_clone=149590 energy=-11.638031573989124 stress="0.022594199070454662 -2.470551752549526e-08 -7.755800781607589e-08 -2.470551752549526e-08 0.02270838028109363 -2.089658198875288e-07 -7.755800781607589e-08 -2.089658198875288e-07 0.012283072924462374" pbc="T T F"
H        1.40307756       0.81006721      10.00000000        3       1.00000000       0.00000000       0.00000000       0.00000000       0.00000000       0.00000000       0.00000000
H        4.20923268       0.81006721      10.00000000        3       1.00000000       0.00000000       0.00000000       0.00000000       0.00000000       0.00000000       0.00000000
H        0.00000000       3.24026883      10.00000000        3       1.00000000       0.00000000       0.00000000       0.00000000       0.00000000       0.00000000       0.00000000
H        2.80615512       3.24026883      10.00000000        3       1.00000000       0.00000000       0.00000000       0.00000000       0.00000000       0.00000000       0.00000000
H        0.00000000       1.62013441      12.29121606        2       1.00000000       0.00000000       0.00000000       0.00000000       0.00000000       0.00000000       0.00000000
H        2.80615512       1.62013441      12.29121606        2       1.00000000       0.00000000       0.00000000       0.00000000       0.00000000       0.00000000       0.00000000
H        1.40307756       4.05033604      12.29121606        2       1.00000000       0.00000000       0.00000000       0.00000000       0.00000000       0.00000000       0.00000000
H        4.20923268       4.05033604      12.29121606        2       1.00000000       0.00000000       0.00000000       0.00000000       0.00000000       0.00000000       0.00000000
H        0.00000000       0.00000000      14.58243212        1       1.00000000       0.00000000       0.00000000       0.00000000       0.00000000       0.00000000       0.00000000
H        2.80615512       0.00000000      14.58243212        1       1.00000000       0.00000000       0.00000000       0.00000000       0.00000000       0.00000000       0.00000000
H        1.40307756       2.43020162      14.58243212        1       1.00000000       0.00000000       0.00000000       0.00000000       0.00000000       0.00000000       0.00000000
H        4.20923268       2.43020162      14.58243212        1       1.00000000       0.00000000       0.00000000       0.00000000       0.00000000       0.00000000       0.00000000
H        1.39314191       4.05018762      16.81114180        0       1.00000000       0.00000047       0.00000247      -0.00001430      -0.00000037      -0.00000266       0.00001529
H        5.61231260       1.62013302       7.77136669        0       1.00000000      -0.00000123       0.00000764      -0.00002493      -0.00003015       0.00002514      -0.00002392
H        2.81606823       1.61998294      16.81112310        0       1.00000000      -0.00000429      -0.00000060      -0.00000930       0.00000720       0.00002390      -0.00000821
H        2.80616888       1.62013633       7.77136567        0       1.00000000       0.00001081       0.00001782       0.00000077       0.00003085      -0.00002325       0.00000152
H        1.40308086       4.05034005       7.77136634        0       1.00000000      -0.00000064      -0.00000034       0.00000991      -0.00000377       0.00000506      -0.00002660
H        4.20923597       4.05034469       7.77136662        0       1.00000000       0.00000119      -0.00000325      -0.00000549       0.00000133      -0.00000837       0.00000070
18
Lattice="5.612310241546866 0.0 0.0 0.0 4.860403243099165 0.0 0.0 0.0 24.582432123328676" Properties=species:S:1:pos:R:3:tags:I:1:masses:R:1:momenta:R:3:forces:R:3 KEmax=23.26679191048647 iter=149784 volume=670.5618179858607 ns_energy=-11.638031573421232 last_walked_iter_clone=149547 energy=-11.638031573989124 stress="0.022594199070454662 -2.470551752549526e-08 -7.755800781607589e-08 -2.470551752549526e-08 0.02270838028109363 -2.089658198875288e-07 -7.755800781607589e-08 -2.089658198875288e-07 0.012283072924462374" pbc="T T F"
H        1.40307756       0.81006721      10.00000000        3       1.00000000       0.00000000       0.00000000       0.00000000       0.00000000       0.00000000       0.00000000
H        4.20923268       0.81006721      10.00000000        3       1.00000000       0.00000000       0.00000000       0.00000000       0.00000000       0.00000000       0.00000000
H        0.00000000       3.24026883      10.00000000        3       1.00000000       0.00000000       0.00000000       0.00000000       0.00000000       0.00000000       0.00000000
H        2.80615512       3.24026883      10.00000000        3       1.00000000       0.00000000       0.00000000       0.00000000       0.00000000       0.00000000       0.00000000
H        0.00000000       1.62013441      12.29121606        2       1.00000000       0.00000000       0.00000000       0.00000000       0.00000000       0.00000000       0.00000000
H        2.80615512       1.62013441      12.29121606        2       1.00000000       0.00000000       0.00000000       0.00000000       0.00000000       0.00000000       0.00000000
H        1.40307756       4.05033604      12.29121606        2       1.00000000       0.00000000       0.00000000       0.00000000       0.00000000       0.00000000       0.00000000
H        4.20923268       4.05033604      12.29121606        2       1.00000000       0.00000000       0.00000000       0.00000000       0.00000000       0.00000000       0.00000000
H        0.00000000       0.00000000      14.58243212        1       1.00000000       0.00000000       0.00000000       0.00000000       0.00000000       0.00000000       0.00000000
H        2.80615512       0.00000000      14.58243212        1       1.00000000       0.00000000       0.00000000       0.00000000       0.00000000       0.00000000       0.00000000
H        1.40307756       2.43020162      14.58243212        1       1.00000000       0.00000000       0.00000000       0.00000000       0.00000000       0.00000000       0.00000000
H        4.20923268       2.43020162      14.58243212        1       1.00000000       0.00000000       0.00000000       0.00000000       0.00000000       0.00000000       0.00000000
H        1.39315924       4.05020131      16.81113088        0       1.00000000      -0.00000347      -0.00001231      -0.00000086      -0.00000037      -0.00000266       0.00001529
H       -0.00000630       1.62013895       7.77136779        0       1.00000000      -0.00000722       0.00002303       0.00001224      -0.00003015       0.00002514      -0.00002392
H        2.81609552       1.61998891      16.81112702        0       1.00000000       0.00000758       0.00001292      -0.00000454       0.00000720       0.00002390      -0.00000821