18
Lattice="5.612310241546866 0.0 0.0 0.0 4.860403243099165 0.0 0.0 0.0 24.582432123328676" Properties=species:S:1:pos:R:3:tags:I:1:masses:R:1:momenta:R:3:forces:R:3 KEmax=23.26679191048647 iter=228976 volume=670.5618179858607 ns_energy=-11.638031574958154 last_walked_iter_clone=226514 energy=-11.63803157495295 stress="0.02259427704501657 -7.45162500941537e-09 2.4643629681307093e-09 -7.45162500941537e-09 0.022708675079374758 -1.1597238000145537e-08 2.4643629681307093e-09 -1.1597238000145537e-08 0.012283597575626274" pbc="T T F"
H        1.40307756       0.81006721      10.00000000        3       1.00000000       0.00000000       0.00000000       0.00000000       0.00000000       0.00000000       0.00000000
H        4.20923268       0.81006721      10.00000000        3       1.00000000       0.00000000       0.00000000       0.00000000       0.00000000       0.00000000       0.00000000
H        0.00000000       3.24026883      10.00000000        3       1.00000000       0.00000000       0.00000000       0.00000000       0.00000000       0.00000000       0.00000000
H        2.80615512       3.24026883      10.00000000        3       1.00000000       0.00000000       0.00000000       0.00000000       0.00000000       0.00000000       0.00000000
H        0.00000000       1.62013441      12.29121606        2       1.00000000       0.00000000       0.00000000       0.00000000       0.00000000       0.00000000       0.00000000
H        2.80615512       1.62013441      12.29121606        2       1.00000000       0.00000000       0.00000000       0.00000000       0.00000000       0.00000000       0.00000000
H        1.40307756       4.05033604      12.29121606        2       1.00000000       0.00000000       0.00000000       0.00000000       0.00000000       0.00000000       0.00000000
H        4.20923268       4.05033604      12.29121606        2       1.00000000       0.00000000       0.00000000       0.00000000       0.00000000       0.00000000       0.00000000
H        0.00000000       0.00000000      14.58243212        1       1.00000000       0.00000000       0.00000000       0.00000000       0.00000000       0.00000000       0.00000000
H        2.80615512       0.00000000      14.58243212        1       1.00000000       0.00000000       0.00000000       0.00000000       0.00000000       0.00000000       0.00000000
H        1.40307756       2.43020162      14.58243212        1       1.00000000       0.00000000       0.00000000       0.00000000       0.00000000       0.00000000       0.00000000
H        4.20923268       2.43020162      14.58243212        1       1.00000000       0.00000000       0.00000000       0.00000000       0.00000000       0.00000000       0.00000000
H        1.39314563       4.05018892      16.81113028        0       1.00000000      -0.00000004      -0.00000114      -0.00000129      -0.00000010      -0.00000120       0.00000112
H        0.00000059       1.62013445       7.77136707        0       1.00000000       0.00000011      -0.00000013      -0.00000056       0.00000537      -0.00000035      -0.00000144
H        2.81608663       1.61998737      16.81113081        0       1.00000000      -0.00000041       0.00000039       0.00000094       0.00000047       0.00000140      -0.00000055
H        2.80615538       1.62013463       7.77136730        0       1.00000000       0.00000090      -0.00000098      -0.00000072      -0.00000492      -0.00000499       0.00000180
H        1.40307721       4.05033666       7.77136766        0       1.00000000      -0.00000101      -0.00000021      -0.00000074      -0.00000221       0.00000337       0.00000085
H        4.20923262       4.05033641       7.77136739        0       1.00000000       0.00000026       0.00000061      -0.00000109       0.00000241       0.00000132       0.00000061
18
Lattice="5.612310241546866 0.0 0.0 0.0 4.860403243099165 0.0 0.0 0.0 24.582432123328676" Properties=species:S:1:pos:R:3:tags:I:1:masses:R:1:momenta:R:3:forces:R:3 KEmax=23.26679191048647 iter=228976 volume=670.5618179858607 ns_energy=-11.638031574958243 last_walked_iter_clone=226536 energy=-11.63803157495295 stress="0.02259427704501657 -7.45162500941537e-09 2.4643629681307093e-09 -7.45162500941537e-09 0.022708675079374758 -1.1597238000145537e-08 2.4643629681307093e-09 -1.1597238000145537e-08 0.012283597575626274" pbc="T T F"
H        1.40307756       0.81006721      10.00000000        3       1.00000000       0.00000000       0.00000000       0.00000000       0.00000000       0.00000000       0.00000000
H        4.20923268       0.81006721      10.00000000        3       1.00000000       0.00000000       0.00000000       0.00000000       0.00000000       0.00000000       0.00000000
H        0.00000000       3.24026883      10.00000000        3       1.00000000       0.00000000       0.00000000       0.00000000       0.00000000       0.00000000       0.00000000
H        2.80615512       3.24026883      10.00000000        3       1.00000000       0.00000000       0.00000000       0.00000000       0.00000000       0.00000000       0.00000000
H        0.00000000       1.62013441      12.29121606        2       1.00000000       0.00000000       0.00000000       0.00000000       0.00000000       0.00000000       0.00000000
H        2.80615512       1.62013441      12.29121606        2       1.00000000       0.00000000       0.00000000       0.00000000       0.00000000       0.00000000       0.00000000
H        1.40307756       4.05033604      12.29121606        2       1.00000000       0.00000000       0.00000000       0.00000000       0.00000000       0.00000000       0.00000000
H        4.20923268       4.05033604      12.29121606        2       1.00000000       0.00000000       0.00000000       0.00000000       0.00000000       0.00000000       0.00000000
H        0.00000000       0.00000000      14.58243212        1       1.00000000       0.00000000       0.00000000       0.00000000       0.00000000       0.00000000       0.00000000
H        2.80615512       0.00000000      14.58243212        1       1.00000000       0.00000000       0.00000000       0.00000000       0.00000000       0.00000000       0.00000000
H        1.40307756       2.43020162      14.58243212        1       1.00000000       0.00000000       0.00000000       0.00000000       0.00000000       0.00000000       0.00000000
H        4.20923268       2.43020162      14.58243212        1       1.00000000       0.00000000       0.00000000       0.00000000       0.00000000       0.00000000       0.00000000
H        1.39314556       4.05018914      16.81113030        0       1.00000000      -0.00000109      -0.00000063      -0.00000050      -0.00000010      -0.00000120       0.00000112
H        0.00000043       1.62013447       7.77136712        0       1.00000000      -0.00000058      -0.00000007       0.00000001       0.00000537      -0.00000035      -0.00000144
H        2.81608665       1.61998735      16.81113078        0       1.00000000      -0.00000001       0.00000068      -0.00000034       0.00000047       0.00000140      -0.00000055
H        2.80615551       1.62013464       7.77136734        0       1.00000000       0.00000092      -0.00000095       0.00000084      -0.00000492      -0.00000499       0.00000180
H        1.40307723       4.05033620       7.77136761        0       1.00000000       0.00000004      -0.00000025       0.00000146      -0.00000221       0.00000337       0.00000085
H        4.20923251       4.05033632       7.77136739        0       1.00000000      -0.00000013      -0.00000173       0.00000051       0.00000241       0.00000132       0.00000061
18
Lattice="5.612310241546866 0.0 0.0 0.0 4.860403243099165 0.0 0.0 0.0 24.582432123328676" Properties=species:S:1:pos:R:3:tags:I:1:masses:R:1:momenta:R:3:forces:R:3 KEmax=23.26679191048647 iter=228976 volume=670.5618179858607 ns_energy=-11.6380315749582 last_walked_iter_clone=228771 energy=-11.63803157495295 stress="0.02259427704501657 -7.45162500941537e-09 2.4643629681307093e-09 -7.45162500941537e-09 0.022708675079374758 -1.1597238000145537e-08 2.4643629681307093e-09 -1.1597238000145537e-08 0.012283597575626274" pbc="T T F"
H        1.40307756       0.81006721      10.00000000        3       1.00000000       0.00000000       0.00000000       0.00000000       0.00000000       0.00000000       0.00000000
H        4.20923268       0.81006721      10.00000000        3       1.00000000       0.00000000       0.00000000       0.00000000       0.00000000       0.00000000       0.00000000
H        0.00000000       3.24026883      10.00000000        3       1.00000000       0.00000000       0.00000000       0.00000000       0.00000000       0.00000000       0.00000000
H        2.80615512       3.24026883      10.00000000        3       1.00000000       0.00000000       0.00000000       0.00000000       0.00000000       0.00000000       0.00000000
H        0.00000000       1.62013441      12.29121606        2       1.00000000       0.00000000       0.00000000       0.00000000       0.00000000       0.00000000       0.00000000
H        2.80615512       1.62013441      12.29121606        2       1.00000000       0.00000000       0.00000000       0.00000000       0.00000000       0.00000000       0.00000000
H        1.40307756       4.05033604      12.29121606        2       1.00000000       0.00000000       0.00000000       0.00000000       0.00000000       0.00000000       0.00000000
H        4.20923268       4.05033604      12.29121606        2       1.00000000       0.00000000       0.00000000       0.00000000       0.00000000       0.00000000       0.00000000
H        0.00000000       0.00000000      14.58243212        1       1.00000000       0.00000000       0.00000000       0.00000000       0.00000000       0.00000000       0.00000000
H        2.80615512       0.00000000      14.58243212        1       1.00000000       0.00000000       0.00000000       0.00000000       0.00000000       0.00000000       0.00000000
H        1.40307756       2.43020162      14.58243212        1       1.00000000       0.00000000       0.00000000       0.00000000       0.00000000       0.00000000       0.00000000
H        4.20923268       2.43020162      14.58243212        1       1.00000000       0.00000000       0.00000000       0.00000000       0.00000000       0.00000000       0.00000000
H        1.39314673       4.05018958      16.81113081        0       1.00000000      -0.00000092       0.00000034       0.00000052      -0.00000010      -0.00000120       0.00000112
H        0.00000063       1.62013486       7.77136745        0       1.00000000       0.00000035      -0.00000112       0.00000002       0.00000537      -0.00000035      -0.00000144
H        2.81608583       1.61998822      16.81113030        0       1.00000000       0.00000038      -0.00000033      -0.00000138       0.00000047       0.00000140      -0.00000055
H        2.80615532       1.62013418       7.77136649        0       1.00000000      -0.00000080      -0.00000103      -0.00000045      -0.00000492      -0.00000499       0.00000180
H        1.40307751       4.05033619       7.77136740        0       1.00000000      -0.00000081       0.00000067       0.00000007      -0.00000221       0.00000337       0.00000085
H        4.20923282       4.05033644       7.77136692        0       1.00000000      -0.00000063       0.00000088      -0.00000101       0.00000241       0.00000132       0.00000061
18
Lattice="5.612310241546866 0.0 0.0 0.0 4.860403243099165 0.0 0.0 0.0 24.582432123328676" Properties=species:S:1:pos:R:3:tags:I:1:masses:R:1:momenta:R:3:forces:R:3 KEmax=23.26679191048647 iter=228976 volume=670.5618179858607 ns_energy=-11.638031574958436 last_walked_iter_clone=228235 energy=-11.63803157495295 stress="0.02259427704501657 -7.45162500941537e-09 2.4643629681307093e-09 -7.45162500941537e-09 0.022708675079374758 -1.1597238000145537e-08 2.4643629681307093e-09 -1.1597238000145537e-08 0.012283597575626274" pbc="T T F"
H        1.40307756       0.81006721      10.00000000        3       1.00000000       0.00000000       0.00000000       0.00000000       0.00000000       0.00000000       0.00000000
H        4.20923268       0.81006721      10.00000000        3       1.00000000       0.00000000       0.00000000       0.00000000       0.00000000       0.00000000       0.00000000
H        0.00000000       3.24026883      10.00000000        3       1.00000000       0.00000000       0.00000000       0.00000000       0.00000000       0.00000000       0.00000000
H        2.80615512       3.24026883      10.00000000        3       1.00000000       0.00000000       0.00000000       0.00000000       0.00000000       0.00000000       0.00000000
H        0.00000000       1.62013441      12.29121606        2       1.00000000       0.00000000       0.00000000       0.00000000       0.00000000       0.00000000       0.00000000
H        2.80615512       1.62013441      12.29121606        2       1.00000000       0.00000000       0.00000000       0.00000000       0.00000000       0.00000000       0.00000000
H        1.40307756       4.05033604      12.29121606        2       1.00000000       0.00000000       0.00000000       0.00000000       0.00000000       0.00000000       0.00000000
H        4.20923268       4.05033604      12.29121606        2       1.00000000       0.00000000       0.00000000       0.00000000       0.00000000       0.00000000       0.00000000
H        0.00000000       0.00000000      14.58243212        1       1.00000000       0.00000000       0.00000000       0.00000000       0.00000000       0.00000000       0.00000000
H        2.80615512       0.00000000      14.58243212        1       1.00000000       0.00000000       0.00000000       0.00000000       0.00000000       0.00000000       0.00000000
H        1.40307756       2.43020162      14.58243212        1       1.00000000       0.00000000       0.00000000       0.00000000       0.00000000       0.00000000       0.00000000
H        4.20923268       2.43020162      14.58243212        1       1.00000000       0.00000000       0.00000000       0.00000000       0.00000000       0.00000000       0.00000000
H        1.39314543       4.05018934      16.81113065        0       1.00000000      -0.00000080      -0.00000059      -0.00000015      -0.00000010      -0.00000120       0.00000112
H        0.00000017       1.62013435       7.77136685        0       1.00000000       0.00000025      -0.00000037      -0.00000041       0.00000537      -0.00000035      -0.00000144
H        2.81608665       1.61998780      16.81113069        0       1.00000000       0.00000162      -0.00000059      -0.00000111       0.00000047       0.00000140      -0.00000055
H        2.80615531       1.62013472       7.77136721        0       1.00000000       0.00000088      -0.00000085      -0.00000041      -0.00000492      -0.00000499       0.00000180
H        1.40307741       4.05033595       7.77136749        0       1.00000000      -0.00000147      -0.00000057      -0.00000039      -0.00000221       0.00000337       0.00000085
H        4.20923210       4.05033623       7.77136737        0       1.00000000      -0.00000053      -0.00000051      -0.00000036       0.00000241       0.00000132       0.00000061
18
Lattice="5.612310241546866 0.0 0.0 0.0 4.860403243099165 0.0 0.0 0.0 24.582432123328676" Properties=species:S:1:pos:R:3:tags:I:1:masses:R:1:momenta:R:3:forces:R:3 KEmax=23.26679191048647 iter=228976 volume=670.5618179858607 ns_energy=-11.63803157495828 last_walked_iter_clone=228774 energy=-11.63803157495295 stress="0.02259427704501657 -7.45162500941537e-09 2.4643629681307093e-09 -7.45162500941537e-09 0.022708675079374758 -1.1597238000145537e-08 2.4643629681307093e-09 -1.1597238000145537e-08 0.012283597575626274" pbc="T T F"
H        1.40307756       0.81006721      10.00000000        3       1.00000000       0.00000000       0.00000000       0.00000000       0.00000000       0.00000000       0.00000000
H        4.20923268       0.81006721      10.00000000        3       1.00000000       0.00000000       0.00000000       0.00000000       0.00000000       0.00000000       0.00000000
H        0.00000000       3.24026883      10.00000000        3       1.00000000       0.00000000       0.00000000       0.00000000       0.00000000       0.00000000       0.00000000
H        2.80615512       3.24026883      10.00000000        3       1.00000000       0.00000000       0.00000000       0.00000000       0.00000000       0.00000000       0.00000000
H        0.00000000       1.62013441      12.29121606        2       1.00000000       0.00000000       0.00000000       0.00000000       0.00000000       0.00000000       0.00000000
H        2.80615512       1.62013441      12.29121606        2       1.00000000       0.00000000       0.00000000       0.00000000       0.00000000       0.00000000       0.00000000
H        1.40307756       4.05033604      12.29121606        2       1.00000000       0.00000000       0.00000000       0.00000000       0.00000000       0.00000000       0.00000000
H        4.20923268       4.05033604      12.29121606        2       1.00000000       0.00000000       0.00000000       0.00000000       0.00000000       0.00000000       0.00000000
H        0.00000000       0.00000000      14.58243212        1       1.00000000       0.00000000       0.00000000       0.00000000       0.00000000       0.00000000       0.00000000
H        2.80615512       0.00000000      14.58243212        1       1.00000000       0.00000000       0.00000000       0.00000000       0.00000000       0.00000000       0.00000000
H        1.40307756       2.43020162      14.58243212        1       1.00000000       0.00000000       0.00000000       0.00000000       0.00000000       0.00000000       0.00000000
H        4.20923268       2.43020162      14.58243212        1       1.00000000       0.00000000       0.00000000       0.00000000       0.00000000       0.00000000       0.00000000
H        1.39314607       4.05019026      16.81113121        0       1.00000000      -0.00000027      -0.00000013       0.00000008      -0.00000010      -0.00000120       0.00000112
H       -0.00000003       1.62013395       7.77136743        0       1.00000000      -0.00000103      -0.00000008       0.00000096       0.00000537      -0.00000035      -0.00000144
H        2.81608548       1.61998872      16.81113069        0       1.00000000      -0.00000057      -0.00000035       0.00000144       0.00000047       0.00000140      -0.00000055
H        2.80615520       1.62013415       7.77136730        0       1.00000000       0.00000056      -0.00000002      -0.00000194      -0.00000492      -0.00000499       0.00000180
H        1.40307730       4.05033576       7.77136757        0       1.00000000      -0.00000042       0.00000011       0.00000007      -0.00000221       0.00000337       0.00000085
H        4.20923246       4.05033585       7.77136741        0       1.00000000       0.00000003       0.00000078      -0.00000070       0.00000241       0.00000132       0.00000061
18
Lattice="5.612310241546866 0.0 0.0 0.0 4.860403243099165 0.0 0.0 0.0 24.582432123328676" Properties=species:S:1:pos:R:3:tags:I:1:masses:R:1:momenta:R:3:forces:R:3 KEmax=23.26679191048647 iter=228976 volume=670.5618179858607 ns_energy=-11.638031574958337 last_walked_iter_clone=227851 energy=-11.63803157495295 stress="0.02259427704501657 -7.45162500941537e-09 2.4643629681307093e-09 -7.45162500941537e-09 0.022708675079374758 -1.1597238000145537e-08 2.4643629681307093e-09 -1.1597238000145537e-08 0.012283597575626274" pbc="T T F"
H        1.40307756       0.81006721      10.00000000        3       1.00000000       0.00000000       0.00000000       0.00000000       0.00000000       0.00000000       0.00000000
H        4.20923268       0.81006721      10.00000000        3       1.00000000       0.00000000       0.00000000       0.00000000       0.00000000       0.00000000       0.00000000
H        0.00000000       3.24026883      10.00000000        3       1.00000000       0.00000000       0.00000000       0.00000000       0.00000000       0.00000000       0.00000000
H        2.80615512       3.24026883      10.00000000        3       1.00000000       0.00000000       0.00000000       0.00000000       0.00000000       0.00000000       0.00000000
H        0.00000000       1.62013441      12.29121606        2       1.00000000       0.00000000       0.00000000       0.00000000       0.00000000       0.00000000       0.00000000
H        2.80615512       1.62013441      12.29121606        2       1.00000000       0.00000000       0.00000000       0.00000000       0.00000000       0.00000000       0.00000000
H        1.40307756       4.05033604      12.29121606        2       1.00000000       0.00000000       0.00000000       0.00000000       0.00000000       0.00000000       0.00000000
H        4.20923268       4.05033604      12.29121606        2       1.00000000       0.00000000       0.00000000       0.00000000       0.00000000       0.00000000       0.00000000
H        0.00000000       0.00000000      14.58243212        1       1.00000000       0.00000000       0.00000000       0.00000000       0.00000000       0.00000000       0.00000000
H        2.80615512       0.00000000      14.58243212        1       1.00000000       0.00000000       0.00000000       0.00000000       0.00000000       0.00000000       0.00000000
H        1.40307756       2.43020162      14.58243212        1       1.00000000       0.00000000       0.00000000       0.00000000       0.00000000       0.00000000       0.00000000
H        4.20923268       2.43020162      14.58243212        1       1.00000000       0.00000000       0.00000000       0.00000000       0.00000000       0.00000000       0.00000000
H        1.39314532       4.05018921      16.81113028        0       1.00000000      -0.00000127      -0.00000033       0.00000091      -0.00000010      -0.00000120       0.00000112
H        0.00000019       1.62013496       7.77136692        0       1.00000000      -0.00000151      -0.00000112      -0.00000092       0.00000537      -0.00000035      -0.00000144
H        2.81608593       1.61998722      16.81113013        0       1.00000000       0.00000009       0.00000089      -0.00000111       0.00000047       0.00000140      -0.00000055
H        2.80615551       1.62013473       7.77136667        0       1.00000000       0.00000086      -0.00000001      -0.00000048      -0.00000492      -0.00000499       0.00000180
H        1.40307776       4.05033635       7.77136740        0       1.00000000       0.00000009      -0.00000013       0.00000019      -0.00000221       0.00000337       0.00000085
H        4.20923324       4.05033649       7.77136736        0       1.00000000      -0.00000017      -0.00000018       0.00000043       0.00000241       0.00000132       0.00000061
18
Lattice="5.612310241546866 0.0 0.0 0.0 4.860403243099165 0.0 0.0 0.0 24.582432123328676" Properties=species:S:1:pos:R:3:tags:I:1:masses:R:1:momenta:R:3:forces:R:3 KEmax=23.26679191048647 iter=228976 volume=670.5618179858607 ns_energy=-11.63803157495813 last_walked_iter_clone=226890 energy=-11.63803157495295 stress="0.02259427704501657 -7.45162500941537e-09 2.4643629681307093e-09 -7.45162500941537e-09 0.022708675079374758 -1.1597238000145537e-08 2.4643629681307093e-09 -1.1597238000145537e-08 0.012283597575626274" pbc="T T F"
H        1.40307756       0.81006721      10.00000000        3       1.00000000       0.00000000       0.00000000       0.00000000       0.00000000       0.00000000       0.00000000
H        4.20923268       0.81006721      10.00000000        3       1.00000000       0.00000000       0.00000000       0.00000000       0.00000000       0.00000000       0.00000000
H        0.00000000       3.24026883      10.00000000        3       1.00000000       0.00000000       0.00000000       0.00000000       0.00000000       0.00000000       0.00000000
H        2.80615512       3.24026883      10.00000000        3       1.00000000       0.00000000       0.00000000       0.00000000       0.00000000       0.00000000       0.00000000
H        0.00000000       1.62013441      12.29121606        2       1.00000000       0.00000000       0.00000000       0.00000000       0.00000000       0.00000000       0.00000000
H        2.80615512       1.62013441      12.29121606        2       1.00000000       0.00000000       0.00000000       0.00000000       0.00000000       0.00000000       0.00000000
H        1.40307756       4.05033604      12.29121606        2       1.00000000       0.00000000       0.00000000       0.00000000       0.00000000       0.00000000       0.00000000
H        4.20923268       4.05033604      12.29121606        2       1.00000000       0.00000000       0.00000000       0.00000000       0.00000000       0.00000000       0.00000000
H        0.00000000       0.00000000      14.58243212        1       1.00000000       0.00000000       0.00000000       0.00000000       0.00000000       0.00000000       0.00000000
H        2.80615512       0.00000000      14.58243212        1       1.00000000       0.00000000       0.00000000       0.00000000       0.00000000       0.00000000       0.00000000
H        1.40307756       2.43020162      14.58243212        1       1.00000000       0.00000000       0.00000000       0.00000000       0.00000000       0.00000000       0.00000000
H        4.20923268       2.43020162      14.58243212        1       1.00000000       0.00000000       0.00000000       0.00000000       0.00000000       0.00000000       0.00000000
H        1.39314774       4.05018824      16.81113073        0       1.00000000      -0.00000014      -0.00000006      -0.00000039      -0.00000010      -0.00000120       0.00000112
H        5.61231105       1.62013479       7.77136717        0       1.00000000       0.00000096       0.00000036       0.00000042       0.00000537      -0.00000035      -0.00000144
H        2.81608743       1.61998696      16.81113055        0       1.00000000      -0.00000014      -0.00000157       0.00000061       0.00000047       0.00000140      -0.00000055
H        2.80615589       1.62013504       7.77136690        0       1.00000000       0.00000016      -0.00000095       0.00000015      -0.00000492      -0.00000499       0.00000180
H        1.40307837       4.05033628       7.77136777        0       1.00000000      -0.00000011       0.00000035       0.00000099      -0.00000221       0.00000337       0.00000085
H        4.20923385       4.05033646       7.77136764        0       1.00000000      -0.00000068      -0.00000077      -0.00000045       0.00000241       0.00000132       0.00000061
18
Lattice="5.612310241546866 0.0 0.0 0.0 4.860403243099165 0.0 0.0 0.0 24.582432123328676" Properties=species:S:1:pos:R:3:tags:I:1:masses:R:1:momenta:R:3:forces:R:3 KEmax=23.26679191048647 iter=228976 volume=670.5618179858607 ns_energy=-11.638031574958159 last_walked_iter_clone=228910 energy=-11.63803157495295 stress="0.02259427704501657 -7.45162500941537e-09 2.4643629681307093e-09 -7.45162500941537e-09 0.022708675079374758 -1.1597238000145537e-08 2.4643629681307093e-09 -1.1597238000145537e-08 0.012283597575626274" pbc="T T F"
H        1.40307756       0.81006721      10.00000000        3       1.00000000       0.00000000       0.00000000       0.00000000       0.00000000       0.00000000       0.00000000
H        4.20923268       0.81006721      10.00000000        3       1.00000000       0.00000000       0.00000000       0.00000000       0.00000000       0.00000000       0.00000000
H        0.00000000       3.24026883      10.00000000        3       1.00000000       0.00000000       0.00000000       0.00000000       0.00000000       0.00000000       0.00000000
H        2.80615512       3.24026883      10.00000000        3       1.00000000       0.00000000       0.00000000       0.00000000       0.00000000       0.00000000       0.00000000
H        0.00000000       1.62013441      12.29121606        2       1.00000000       0.00000000       0.00000000       0.00000000       0.00000000       0.00000000       0.00000000
H        2.80615512       1.62013441      12.29121606        2       1.00000000       0.00000000       0.00000000       0.00000000       0.00000000       0.00000000       0.00000000
H        1.40307756       4.05033604      12.29121606        2       1.00000000       0.00000000       0.00000000       0.00000000       0.00000000       0.00000000       0.00000000
H        4.20923268       4.05033604      12.29121606        2       1.00000000       0.00000000       0.00000000       0.00000000       0.00000000       0.00000000       0.00000000
H        0.00000000       0.00000000      14.58243212        1       1.00000000       0.00000000       0.00000000       0.00000000       0.00000000       0.00000000       0.00000000
H        2.80615512       0.00000000      14.58243212        1       1.00000000       0.00000000       0.00000000       0.00000000       0.00000000       0.00000000       0.00000000
H        1.40307756       2.43020162      14.58243212        1       1.00000000       0.00000000       0.00000000       0.00000000       0.00000000       0.00000000       0.00000000
H        4.20923268       2.43020162      14.58243212        1       1.00000000       0.00000000       0.00000000       0.00000000       0.00000000       0.00000000       0.00000000
H        1.39314724       4.05018817      16.81113034        0       1.00000000      -0.00000026      -0.00000033       0.00000054      -0.00000010      -0.00000120       0.00000112
H        0.00000039       1.62013508       7.77136661        0       1.00000000       0.00000072       0.00000100       0.00000009       0.00000537      -0.00000035      -0.00000144
H        2.81608636       1.61998595      16.81112993        0       1.00000000       0.00000062      -0.00000045       0.00000009       0.00000047       0.00000140      -0.00000055