18
Lattice="5.612310241546866 0.0 0.0 0.0 4.860403243099165 0.0 0.0 0.0 24.582432123328676" Properties=species:S:1:pos:R:3:tags:I:1:masses:R:1:momenta:R:3:forces:R:3 KEmax=23.26679191048647 iter=239999 volume=670.5618179858607 ns_energy=-11.638031574959117 last_walked_iter_clone=238851 energy=-11.638031574961285 stress="0.022594280825660902 2.1716426673917038e-09 -9.974154858751271e-09 2.1716426673917038e-09 0.02270869204440249 -2.736570471167199e-09 -9.974154858751271e-09 -2.736570471167199e-09 0.01228362040244379" pbc="T T F"
H        1.40307756       0.81006721      10.00000000        3       1.00000000       0.00000000       0.00000000       0.00000000       0.00000000       0.00000000       0.00000000
H        4.20923268       0.81006721      10.00000000        3       1.00000000       0.00000000       0.00000000       0.00000000       0.00000000       0.00000000       0.00000000
H        0.00000000       3.24026883      10.00000000        3       1.00000000       0.00000000       0.00000000       0.00000000       0.00000000       0.00000000       0.00000000
H        2.80615512       3.24026883      10.00000000        3       1.00000000       0.00000000       0.00000000       0.00000000       0.00000000       0.00000000       0.00000000
H        0.00000000       1.62013441      12.29121606        2       1.00000000       0.00000000       0.00000000       0.00000000       0.00000000       0.00000000       0.00000000
H        2.80615512       1.62013441      12.29121606        2       1.00000000       0.00000000       0.00000000       0.00000000       0.00000000       0.00000000       0.00000000
H        1.40307756       4.05033604      12.29121606        2       1.00000000       0.00000000       0.00000000       0.00000000       0.00000000       0.00000000       0.00000000
H        4.20923268       4.05033604      12.29121606        2       1.00000000       0.00000000       0.00000000       0.00000000       0.00000000       0.00000000       0.00000000
H        0.00000000       0.00000000      14.58243212        1       1.00000000       0.00000000       0.00000000       0.00000000       0.00000000       0.00000000       0.00000000
H        2.80615512       0.00000000      14.58243212        1       1.00000000       0.00000000       0.00000000       0.00000000       0.00000000       0.00000000       0.00000000
H        1.40307756       2.43020162      14.58243212        1       1.00000000       0.00000000       0.00000000       0.00000000       0.00000000       0.00000000       0.00000000
H        4.20923268       2.43020162      14.58243212        1       1.00000000       0.00000000       0.00000000       0.00000000       0.00000000       0.00000000       0.00000000
H        1.39314642       4.05018892      16.81113004        0       1.00000000       0.00000121      -0.00000054      -0.00000076       0.00000040      -0.00000049      -0.00000119
H       -0.00000027       1.62013469       7.77136706        0       1.00000000       0.00000100      -0.00000071       0.00000002      -0.00000337       0.00000008       0.00000016
H        2.81608634       1.61998703      16.81113059        0       1.00000000      -0.00000077      -0.00000139      -0.00000074      -0.00000039       0.00000067      -0.00000028
H        2.80615467       1.62013482       7.77136689        0       1.00000000      -0.00000084      -0.00000019       0.00000027       0.00000100       0.00000094       0.00000097
H        1.40307648       4.05033629       7.77136733        0       1.00000000      -0.00000049      -0.00000016      -0.00000002       0.00000064      -0.00000251       0.00000105
H        4.20923200       4.05033634       7.77136693        0       1.00000000      -0.00000042       0.00000059       0.00000004       0.00000064       0.00000179       0.00000018
18
Lattice="5.612310241546866 0.0 0.0 0.0 4.860403243099165 0.0 0.0 0.0 24.582432123328676" Properties=species:S:1:pos:R:3:tags:I:1:masses:R:1:momenta:R:3:forces:R:3 KEmax=23.26679191048647 iter=239999 volume=670.5618179858607 ns_energy=-11.63803157495918 last_walked_iter_clone=238912 energy=-11.638031574961285 stress="0.022594280825660902 2.1716426673917038e-09 -9.974154858751271e-09 2.1716426673917038e-09 0.02270869204440249 -2.736570471167199e-09 -9.974154858751271e-09 -2.736570471167199e-09 0.01228362040244379" pbc="T T F"
H        1.40307756       0.81006721      10.00000000        3       1.00000000       0.00000000       0.00000000       0.00000000       0.00000000       0.00000000       0.00000000
H        4.20923268       0.81006721      10.00000000        3       1.00000000       0.00000000       0.00000000       0.00000000       0.00000000       0.00000000       0.00000000
H        0.00000000       3.24026883      10.00000000        3       1.00000000       0.00000000       0.00000000       0.00000000       0.00000000       0.00000000       0.00000000
H        2.80615512       3.24026883      10.00000000        3       1.00000000       0.00000000       0.00000000       0.00000000       0.00000000       0.00000000       0.00000000
H        0.00000000       1.62013441      12.29121606        2       1.00000000       0.00000000       0.00000000       0.00000000       0.00000000       0.00000000       0.00000000
H        2.80615512       1.62013441      12.29121606        2       1.00000000       0.00000000       0.00000000       0.00000000       0.00000000       0.00000000       0.00000000
H        1.40307756       4.05033604      12.29121606        2       1.00000000       0.00000000       0.00000000       0.00000000       0.00000000       0.00000000       0.00000000
H        4.20923268       4.05033604      12.29121606        2       1.00000000       0.00000000       0.00000000       0.00000000       0.00000000       0.00000000       0.00000000
H        0.00000000       0.00000000      14.58243212        1       1.00000000       0.00000000       0.00000000       0.00000000       0.00000000       0.00000000       0.00000000
H        2.80615512       0.00000000      14.58243212        1       1.00000000       0.00000000       0.00000000       0.00000000       0.00000000       0.00000000       0.00000000
H        1.40307756       2.43020162      14.58243212        1       1.00000000       0.00000000       0.00000000       0.00000000       0.00000000       0.00000000       0.00000000
H        4.20923268       2.43020162      14.58243212        1       1.00000000       0.00000000       0.00000000       0.00000000       0.00000000       0.00000000       0.00000000
H        1.39314739       4.05018891      16.81113029        0       1.00000000       0.00000076      -0.00000039      -0.00000016       0.00000040      -0.00000049      -0.00000119
H       -0.00000006       1.62013424       7.77136723        0       1.00000000       0.00000163      -0.00000103       0.00000012      -0.00000337       0.00000008       0.00000016
H        2.81608703       1.61998745      16.81113091        0       1.00000000      -0.00000068      -0.00000142       0.00000012      -0.00000039       0.00000067      -0.00000028
H        2.80615531       1.62013433       7.77136743        0       1.00000000       0.00000122      -0.00000080      -0.00000028       0.00000100       0.00000094       0.00000097
H        1.40307751       4.05033607       7.77136724        0       1.00000000       0.00000009       0.00000043      -0.00000045       0.00000064      -0.00000251       0.00000105
H        4.20923266       4.05033590       7.77136676        0       1.00000000      -0.00000039      -0.00000090       0.00000003       0.00000064       0.00000179       0.00000018
18
Lattice="5.612310241546866 0.0 0.0 0.0 4.860403243099165 0.0 0.0 0.0 24.582432123328676" Properties=species:S:1:pos:R:3:tags:I:1:masses:R:1:momenta:R:3:forces:R:3 KEmax=23.26679191048647 iter=239999 volume=670.5618179858607 ns_energy=-11.638031574959241 last_walked_iter_clone=239319 energy=-11.638031574961285 stress="0.022594280825660902 2.1716426673917038e-09 -9.974154858751271e-09 2.1716426673917038e-09 0.02270869204440249 -2.736570471167199e-09 -9.974154858751271e-09 -2.736570471167199e-09 0.01228362040244379" pbc="T T F"
H        1.40307756       0.81006721      10.00000000        3       1.00000000       0.00000000       0.00000000       0.00000000       0.00000000       0.00000000       0.00000000
H        4.20923268       0.81006721      10.00000000        3       1.00000000       0.00000000       0.00000000       0.00000000       0.00000000       0.00000000       0.00000000
H        0.00000000       3.24026883      10.00000000        3       1.00000000       0.00000000       0.00000000       0.00000000       0.00000000       0.00000000       0.00000000
H        2.80615512       3.24026883      10.00000000        3       1.00000000       0.00000000       0.00000000       0.00000000       0.00000000       0.00000000       0.00000000
H        0.00000000       1.62013441      12.29121606        2       1.00000000       0.00000000       0.00000000       0.00000000       0.00000000       0.00000000       0.00000000
H        2.80615512       1.62013441      12.29121606        2       1.00000000       0.00000000       0.00000000       0.00000000       0.00000000       0.00000000       0.00000000
H        1.40307756       4.05033604      12.29121606        2       1.00000000       0.00000000       0.00000000       0.00000000       0.00000000       0.00000000       0.00000000
H        4.20923268       4.05033604      12.29121606        2       1.00000000       0.00000000       0.00000000       0.00000000       0.00000000       0.00000000       0.00000000
H        0.00000000       0.00000000      14.58243212        1       1.00000000       0.00000000       0.00000000       0.00000000       0.00000000       0.00000000       0.00000000
H        2.80615512       0.00000000      14.58243212        1       1.00000000       0.00000000       0.00000000       0.00000000       0.00000000       0.00000000       0.00000000
H        1.40307756       2.43020162      14.58243212        1       1.00000000       0.00000000       0.00000000       0.00000000       0.00000000       0.00000000       0.00000000
H        4.20923268       2.43020162      14.58243212        1       1.00000000       0.00000000       0.00000000       0.00000000       0.00000000       0.00000000       0.00000000
H        1.39314680       4.05018904      16.81113081        0       1.00000000       0.00000015       0.00000063       0.00000046       0.00000040      -0.00000049      -0.00000119
H       -0.00000016       1.62013370       7.77136732        0       1.00000000       0.00000097      -0.00000086      -0.00000012      -0.00000337       0.00000008       0.00000016
H        2.81608664       1.61998782      16.81113067        0       1.00000000      -0.00000035      -0.00000010       0.00000068      -0.00000039       0.00000067      -0.00000028
H        2.80615538       1.62013455       7.77136761        0       1.00000000       0.00000049       0.00000100       0.00000077       0.00000100       0.00000094       0.00000097
H        1.40307775       4.05033584       7.77136655        0       1.00000000       0.00000027      -0.00000079      -0.00000140       0.00000064      -0.00000251       0.00000105
H        4.20923263       4.05033568       7.77136650        0       1.00000000       0.00000012       0.00000003       0.00000026       0.00000064       0.00000179       0.00000018
18
Lattice="5.612310241546866 0.0 0.0 0.0 4.860403243099165 0.0 0.0 0.0 24.582432123328676" Properties=species:S:1:pos:R:3:tags:I:1:masses:R:1:momenta:R:3:forces:R:3 KEmax=23.26679191048647 iter=239999 volume=670.5618179858607 ns_energy=-11.638031574959102 last_walked_iter_clone=238285 energy=-11.638031574961285 stress="0.022594280825660902 2.1716426673917038e-09 -9.974154858751271e-09 2.1716426673917038e-09 0.02270869204440249 -2.736570471167199e-09 -9.974154858751271e-09 -2.736570471167199e-09 0.01228362040244379" pbc="T T F"
H        1.40307756       0.81006721      10.00000000        3       1.00000000       0.00000000       0.00000000       0.00000000       0.00000000       0.00000000       0.00000000
H        4.20923268       0.81006721      10.00000000        3       1.00000000       0.00000000       0.00000000       0.00000000       0.00000000       0.00000000       0.00000000
H        0.00000000       3.24026883      10.00000000        3       1.00000000       0.00000000       0.00000000       0.00000000       0.00000000       0.00000000       0.00000000
H        2.80615512       3.24026883      10.00000000        3       1.00000000       0.00000000       0.00000000       0.00000000       0.00000000       0.00000000       0.00000000
H        0.00000000       1.62013441      12.29121606        2       1.00000000       0.00000000       0.00000000       0.00000000       0.00000000       0.00000000       0.00000000
H        2.80615512       1.62013441      12.29121606        2       1.00000000       0.00000000       0.00000000       0.00000000       0.00000000       0.00000000       0.00000000
H        1.40307756       4.05033604      12.29121606        2       1.00000000       0.00000000       0.00000000       0.00000000       0.00000000       0.00000000       0.00000000
H        4.20923268       4.05033604      12.29121606        2       1.00000000       0.00000000       0.00000000       0.00000000       0.00000000       0.00000000       0.00000000
H        0.00000000       0.00000000      14.58243212        1       1.00000000       0.00000000       0.00000000       0.00000000       0.00000000       0.00000000       0.00000000
H        2.80615512       0.00000000      14.58243212        1       1.00000000       0.00000000       0.00000000       0.00000000       0.00000000       0.00000000       0.00000000
H        1.40307756       2.43020162      14.58243212        1       1.00000000       0.00000000       0.00000000       0.00000000       0.00000000       0.00000000       0.00000000
H        4.20923268       2.43020162      14.58243212        1       1.00000000       0.00000000       0.00000000       0.00000000       0.00000000       0.00000000       0.00000000
H        1.39314627       4.05018834      16.81113044        0       1.00000000       0.00000066      -0.00000018      -0.00000038       0.00000040      -0.00000049      -0.00000119
H        5.61231036       1.62013489       7.77136758        0       1.00000000      -0.00000117      -0.00000058       0.00000054      -0.00000337       0.00000008       0.00000016
H        2.81608689       1.61998727      16.81113074        0       1.00000000       0.00000028       0.00000006      -0.00000010      -0.00000039       0.00000067      -0.00000028
H        2.80615560       1.62013393       7.77136680        0       1.00000000       0.00000131      -0.00000023       0.00000002       0.00000100       0.00000094       0.00000097
H        1.40307752       4.05033625       7.77136641        0       1.00000000       0.00000055       0.00000106      -0.00000032       0.00000064      -0.00000251       0.00000105
H        4.20923258       4.05033629       7.77136742        0       1.00000000      -0.00000059       0.00000061      -0.00000007       0.00000064       0.00000179       0.00000018
18
Lattice="5.612310241546866 0.0 0.0 0.0 4.860403243099165 0.0 0.0 0.0 24.582432123328676" Properties=species:S:1:pos:R:3:tags:I:1:masses:R:1:momenta:R:3:forces:R:3 KEmax=23.26679191048647 iter=239999 volume=670.5618179858607 ns_energy=-11.63803157495925 last_walked_iter_clone=239324 energy=-11.638031574961285 stress="0.022594280825660902 2.1716426673917038e-09 -9.974154858751271e-09 2.1716426673917038e-09 0.02270869204440249 -2.736570471167199e-09 -9.974154858751271e-09 -2.736570471167199e-09 0.01228362040244379" pbc="T T F"
H        1.40307756       0.81006721      10.00000000        3       1.00000000       0.00000000       0.00000000       0.00000000       0.00000000       0.00000000       0.00000000
H        4.20923268       0.81006721      10.00000000        3       1.00000000       0.00000000       0.00000000       0.00000000       0.00000000       0.00000000       0.00000000
H        0.00000000       3.24026883      10.00000000        3       1.00000000       0.00000000       0.00000000       0.00000000       0.00000000       0.00000000       0.00000000
H        2.80615512       3.24026883      10.00000000        3       1.00000000       0.00000000       0.00000000       0.00000000       0.00000000       0.00000000       0.00000000
H        0.00000000       1.62013441      12.29121606        2       1.00000000       0.00000000       0.00000000       0.00000000       0.00000000       0.00000000       0.00000000
H        2.80615512       1.62013441      12.29121606        2       1.00000000       0.00000000       0.00000000       0.00000000       0.00000000       0.00000000       0.00000000
H        1.40307756       4.05033604      12.29121606        2       1.00000000       0.00000000       0.00000000       0.00000000       0.00000000       0.00000000       0.00000000
H        4.20923268       4.05033604      12.29121606        2       1.00000000       0.00000000       0.00000000       0.00000000       0.00000000       0.00000000       0.00000000
H        0.00000000       0.00000000      14.58243212        1       1.00000000       0.00000000       0.00000000       0.00000000       0.00000000       0.00000000       0.00000000
H        2.80615512       0.00000000      14.58243212        1       1.00000000       0.00000000       0.00000000       0.00000000       0.00000000       0.00000000       0.00000000
H        1.40307756       2.43020162      14.58243212        1       1.00000000       0.00000000       0.00000000       0.00000000       0.00000000       0.00000000       0.00000000
H        4.20923268       2.43020162      14.58243212        1       1.00000000       0.00000000       0.00000000       0.00000000       0.00000000       0.00000000       0.00000000
H        1.39314728       4.05018911      16.81113030        0       1.00000000       0.00000005      -0.00000073       0.00000128       0.00000040      -0.00000049      -0.00000119
H        5.61231041       1.62013422       7.77136731        0       1.00000000       0.00000043      -0.00000121       0.00000041      -0.00000337       0.00000008       0.00000016
H        2.81608588       1.61998770      16.81113104        0       1.00000000       0.00000064      -0.00000023       0.00000003      -0.00000039       0.00000067      -0.00000028
H        2.80615564       1.62013476       7.77136727        0       1.00000000       0.00000029      -0.00000028      -0.00000090       0.00000100       0.00000094       0.00000097
H        1.40307728       4.05033596       7.77136728        0       1.00000000      -0.00000056      -0.00000023      -0.00000156       0.00000064      -0.00000251       0.00000105
H        4.20923282       4.05033628       7.77136744        0       1.00000000      -0.00000032       0.00000053       0.00000001       0.00000064       0.00000179       0.00000018
18
Lattice="5.612310241546866 0.0 0.0 0.0 4.860403243099165 0.0 0.0 0.0 24.582432123328676" Properties=species:S:1:pos:R:3:tags:I:1:masses:R:1:momenta:R:3:forces:R:3 KEmax=23.26679191048647 iter=239999 volume=670.5618179858607 ns_energy=-11.638031574958976 last_walked_iter_clone=237174 energy=-11.638031574961285 stress="0.022594280825660902 2.1716426673917038e-09 -9.974154858751271e-09 2.1716426673917038e-09 0.02270869204440249 -2.736570471167199e-09 -9.974154858751271e-09 -2.736570471167199e-09 0.01228362040244379" pbc="T T F"
H        1.40307756       0.81006721      10.00000000        3       1.00000000       0.00000000       0.00000000       0.00000000       0.00000000       0.00000000       0.00000000
H        4.20923268       0.81006721      10.00000000        3       1.00000000       0.00000000       0.00000000       0.00000000       0.00000000       0.00000000       0.00000000
H        0.00000000       3.24026883      10.00000000        3       1.00000000       0.00000000       0.00000000       0.00000000       0.00000000       0.00000000       0.00000000
H        2.80615512       3.24026883      10.00000000        3       1.00000000       0.00000000       0.00000000       0.00000000       0.00000000       0.00000000       0.00000000
H        0.00000000       1.62013441      12.29121606        2       1.00000000       0.00000000       0.00000000       0.00000000       0.00000000       0.00000000       0.00000000
H        2.80615512       1.62013441      12.29121606        2       1.00000000       0.00000000       0.00000000       0.00000000       0.00000000       0.00000000       0.00000000
H        1.40307756       4.05033604      12.29121606        2       1.00000000       0.00000000       0.00000000       0.00000000       0.00000000       0.00000000       0.00000000
H        4.20923268       4.05033604      12.29121606        2       1.00000000       0.00000000       0.00000000       0.00000000       0.00000000       0.00000000       0.00000000
H        0.00000000       0.00000000      14.58243212        1       1.00000000       0.00000000       0.00000000       0.00000000       0.00000000       0.00000000       0.00000000
H        2.80615512       0.00000000      14.58243212        1       1.00000000       0.00000000       0.00000000       0.00000000       0.00000000       0.00000000       0.00000000
H        1.40307756       2.43020162      14.58243212        1       1.00000000       0.00000000       0.00000000       0.00000000       0.00000000       0.00000000       0.00000000
H        4.20923268       2.43020162      14.58243212        1       1.00000000       0.00000000       0.00000000       0.00000000       0.00000000       0.00000000       0.00000000
H        1.39314681       4.05018902      16.81113104        0       1.00000000      -0.00000029       0.00000010      -0.00000000       0.00000040      -0.00000049      -0.00000119
H       -0.00000048       1.62013505       7.77136674        0       1.00000000       0.00000127       0.00000009      -0.00000089      -0.00000337       0.00000008       0.00000016
H        2.81608637       1.61998738      16.81113114        0       1.00000000       0.00000014       0.00000105      -0.00000004      -0.00000039       0.00000067      -0.00000028
H        2.80615512       1.62013456       7.77136748        0       1.00000000      -0.00000048       0.00000104       0.00000071       0.00000100       0.00000094       0.00000097
H        1.40307778       4.05033686       7.77136758        0       1.00000000       0.00000022       0.00000048      -0.00000094       0.00000064      -0.00000251       0.00000105
H        4.20923240       4.05033639       7.77136705        0       1.00000000      -0.00000025       0.00000100       0.00000009       0.00000064       0.00000179       0.00000018
18
Lattice="5.612310241546866 0.0 0.0 0.0 4.860403243099165 0.0 0.0 0.0 24.582432123328676" Properties=species:S:1:pos:R:3:tags:I:1:masses:R:1:momenta:R:3:forces:R:3 KEmax=23.26679191048647 iter=239999 volume=670.5618179858607 ns_energy=-11.638031574959026 last_walked_iter_clone=234331 energy=-11.638031574961285 stress="0.022594280825660902 2.1716426673917038e-09 -9.974154858751271e-09 2.1716426673917038e-09 0.02270869204440249 -2.736570471167199e-09 -9.974154858751271e-09 -2.736570471167199e-09 0.01228362040244379" pbc="T T F"
H        1.40307756       0.81006721      10.00000000        3       1.00000000       0.00000000       0.00000000       0.00000000       0.00000000       0.00000000       0.00000000
H        4.20923268       0.81006721      10.00000000        3       1.00000000       0.00000000       0.00000000       0.00000000       0.00000000       0.00000000       0.00000000
H        0.00000000       3.24026883      10.00000000        3       1.00000000       0.00000000       0.00000000       0.00000000       0.00000000       0.00000000       0.00000000
H        2.80615512       3.24026883      10.00000000        3       1.00000000       0.00000000       0.00000000       0.00000000       0.00000000       0.00000000       0.00000000
H        0.00000000       1.62013441      12.29121606        2       1.00000000       0.00000000       0.00000000       0.00000000       0.00000000       0.00000000       0.00000000
H        2.80615512       1.62013441      12.29121606        2       1.00000000       0.00000000       0.00000000       0.00000000       0.00000000       0.00000000       0.00000000
H        1.40307756       4.05033604      12.29121606        2       1.00000000       0.00000000       0.00000000       0.00000000       0.00000000       0.00000000       0.00000000
H        4.20923268       4.05033604      12.29121606        2       1.00000000       0.00000000       0.00000000       0.00000000       0.00000000       0.00000000       0.00000000
H        0.00000000       0.00000000      14.58243212        1       1.00000000       0.00000000       0.00000000       0.00000000       0.00000000       0.00000000       0.00000000
H        2.80615512       0.00000000      14.58243212        1       1.00000000       0.00000000       0.00000000       0.00000000       0.00000000       0.00000000       0.00000000
H        1.40307756       2.43020162      14.58243212        1       1.00000000       0.00000000       0.00000000       0.00000000       0.00000000       0.00000000       0.00000000
H        4.20923268       2.43020162      14.58243212        1       1.00000000       0.00000000       0.00000000       0.00000000       0.00000000       0.00000000       0.00000000
H        1.39314697       4.05018952      16.81113068        0       1.00000000      -0.00000004      -0.00000035       0.00000027       0.00000040      -0.00000049      -0.00000119
H        0.00000017       1.62013457       7.77136703        0       1.00000000      -0.00000006      -0.00000054       0.00000102      -0.00000337       0.00000008       0.00000016
H        2.81608714       1.61998805      16.81113039        0       1.00000000       0.00000073       0.00000108      -0.00000011      -0.00000039       0.00000067      -0.00000028
H        2.80615557       1.62013501       7.77136710        0       1.00000000      -0.00000073       0.00000018       0.00000066       0.00000100       0.00000094       0.00000097
H        1.40307729       4.05033634       7.77136648        0       1.00000000      -0.00000112      -0.00000014      -0.00000024       0.00000064      -0.00000251       0.00000105
H        4.20923245       4.05033658       7.77136720        0       1.00000000      -0.00000100      -0.00000142       0.00000041       0.00000064       0.00000179       0.00000018
18
Lattice="5.612310241546866 0.0 0.0 0.0 4.860403243099165 0.0 0.0 0.0 24.582432123328676" Properties=species:S:1:pos:R:3:tags:I:1:masses:R:1:momenta:R:3:forces:R:3 KEmax=23.26679191048647 iter=239999 volume=670.5618179858607 ns_energy=-11.638031574958955 last_walked_iter_clone=231336 energy=-11.638031574961285 stress="0.022594280825660902 2.1716426673917038e-09 -9.974154858751271e-09 2.1716426673917038e-09 0.02270869204440249 -2.736570471167199e-09 -9.974154858751271e-09 -2.736570471167199e-09 0.01228362040244379" pbc="T T F"
H        1.40307756       0.81006721      10.00000000        3       1.00000000       0.00000000       0.00000000       0.00000000       0.00000000       0.00000000       0.00000000
H        4.20923268       0.81006721      10.00000000        3       1.00000000       0.00000000       0.00000000       0.00000000       0.00000000       0.00000000       0.00000000
H        0.00000000       3.24026883      10.00000000        3       1.00000000       0.00000000       0.00000000       0.00000000       0.00000000       0.00000000       0.00000000
H        2.80615512       3.24026883      10.00000000        3       1.00000000       0.00000000       0.00000000       0.00000000       0.00000000       0.00000000       0.00000000
H        0.00000000       1.62013441      12.29121606        2       1.00000000       0.00000000       0.00000000       0.00000000       0.00000000       0.00000000       0.00000000
H        2.80615512       1.62013441      12.29121606        2       1.00000000       0.00000000       0.00000000       0.00000000       0.00000000       0.00000000       0.00000000
H        1.40307756       4.05033604      12.29121606        2       1.00000000       0.00000000       0.00000000       0.00000000       0.00000000       0.00000000       0.00000000
H        4.20923268       4.05033604      12.29121606        2       1.00000000       0.00000000       0.00000000       0.00000000       0.00000000       0.00000000       0.00000000
H        0.00000000       0.00000000      14.58243212        1       1.00000000       0.00000000       0.00000000       0.00000000       0.00000000       0.00000000       0.00000000
H        2.80615512       0.00000000      14.58243212        1       1.00000000       0.00000000       0.00000000       0.00000000       0.00000000       0.00000000       0.00000000
H        1.40307756       2.43020162      14.58243212        1       1.00000000       0.00000000       0.00000000       0.00000000       0.00000000       0.00000000       0.00000000
H        4.20923268       2.43020162      14.58243212        1       1.00000000       0.00000000       0.00000000       0.00000000       0.00000000       0.00000000       0.00000000
H        1.39314656       4.05018888      16.81113041        0       1.00000000       0.00000003      -0.00000001       0.00000075       0.00000040      -0.00000049      -0.00000119
H       -0.00000039       1.62013515       7.77136670        0       1.00000000      -0.00000008       0.00000005      -0.00000081      -0.00000337       0.00000008       0.00000016
H        2.81608658       1.61998810      16.81113062        0       1.00000000      -0.00000087       0.00000040       0.00000128      -0.00000039       0.00000067      -0.00000028