20
Lattice="5.612310241546866 0.0 0.0 0.0 4.860403243099165 0.0 0.0 0.0 44.58243212332868" Properties=species:S:1:pos:R:3:tags:I:1:masses:R:1:momenta:R:3:forces:R:3 KEmax=25.851991011651638 iter=37415 volume=1216.1236359717223 set_wall=T ns_energy=-13.443608282932663 last_walked_iter_clone=36823 energy=-13.548496843238308 stress="0.02195765609885348 0.0007689896897788611 0.0013890375386123707 0.0007689896897788611 0.02453430111729672 -0.0007149307818001193 0.0013890375386123707 -0.0007149307818001193 0.010067583227795785" pbc="T T F"
H        1.40307756       0.81006721      20.00000000        3       1.00000000       0.00000000       0.00000000       0.00000000       0.00000000       0.00000000       0.00000000
H        4.20923268       0.81006721      20.00000000        3       1.00000000       0.00000000       0.00000000       0.00000000       0.00000000       0.00000000       0.00000000
H        0.00000000       3.24026883      20.00000000        3       1.00000000       0.00000000       0.00000000       0.00000000       0.00000000       0.00000000       0.00000000
H        2.80615512       3.24026883      20.00000000        3       1.00000000       0.00000000       0.00000000       0.00000000       0.00000000       0.00000000       0.00000000
H        0.00000000       1.62013441      22.29121606        2       1.00000000       0.00000000       0.00000000       0.00000000       0.00000000       0.00000000       0.00000000
H        2.80615512       1.62013441      22.29121606        2       1.00000000       0.00000000       0.00000000       0.00000000       0.00000000       0.00000000       0.00000000
H        1.40307756       4.05033604      22.29121606        2       1.00000000       0.00000000       0.00000000       0.00000000       0.00000000       0.00000000       0.00000000
H        4.20923268       4.05033604      22.29121606        2       1.00000000       0.00000000       0.00000000       0.00000000       0.00000000       0.00000000       0.00000000
H        0.00000000       0.00000000      24.58243212        1       1.00000000       0.00000000       0.00000000       0.00000000       0.00000000       0.00000000       0.00000000
H        2.80615512       0.00000000      24.58243212        1       1.00000000       0.00000000       0.00000000       0.00000000       0.00000000       0.00000000       0.00000000
H        1.40307756       2.43020162      24.58243212        1       1.00000000       0.00000000       0.00000000       0.00000000       0.00000000       0.00000000       0.00000000
H        4.20923268       2.43020162      24.58243212        1       1.00000000       0.00000000       0.00000000       0.00000000       0.00000000       0.00000000       0.00000000
H        2.77373259       4.88940931      29.02381576        0       1.00000000       0.05020726       0.04862927      -0.15265533       0.02834450      -0.17366453      -0.00027715
H        1.27753972       2.41707070      29.23939517        0       1.00000000      -0.13993307       0.01155916       0.13367833       0.07580000       0.34240703       0.17399159
H        5.60850496       1.59248186      26.80369261        0       1.00000000       0.01627384       0.10892901       0.07877955      -0.40236618       0.02989616      -0.04942006
H        1.39826698       4.08515338      26.83813297        0       1.00000000      -0.09691563      -0.08855519       0.10953316       0.30667644      -0.10485590       0.08214648
H        5.60513501       4.77254179      29.11135489        0       1.00000000       0.06857061       0.05638398      -0.00060365      -0.10585734      -0.07605472      -0.08795305
H        4.20025005       4.06897091      26.79983180        0       1.00000000      -0.17336338       0.02160072      -0.12393600       0.12227488      -0.15347923       0.18622796
H        2.77028709       1.64827767      26.79523906        0       1.00000000      -0.00591978      -0.07369038       0.11059483       0.12440724      -0.13245873      -0.03156787
H        4.15507322       2.37162160      29.12367030        0       1.00000000       0.06823860       0.04402569      -0.10662646      -0.15756972       0.12707226      -0.11142467
20
Lattice="5.612310241546866 0.0 0.0 0.0 4.860403243099165 0.0 0.0 0.0 44.58243212332868" Properties=species:S:1:pos:R:3:tags:I:1:masses:R:1:momenta:R:3:forces:R:3 KEmax=25.851991011651638 iter=37415 volume=1216.1236359717223 set_wall=T ns_energy=-13.44583418715888 last_walked_iter_clone=37343 energy=-13.548496843238308 stress="0.02195765609885348 0.0007689896897788611 0.0013890375386123707 0.0007689896897788611 0.02453430111729672 -0.0007149307818001193 0.0013890375386123707 -0.0007149307818001193 0.010067583227795785" pbc="T T F"
H        1.40307756       0.81006721      20.00000000        3       1.00000000       0.00000000       0.00000000       0.00000000       0.00000000       0.00000000       0.00000000
H        4.20923268       0.81006721      20.00000000        3       1.00000000       0.00000000       0.00000000       0.00000000       0.00000000       0.00000000       0.00000000
H        0.00000000       3.24026883      20.00000000        3       1.00000000       0.00000000       0.00000000       0.00000000       0.00000000       0.00000000       0.00000000
H        2.80615512       3.24026883      20.00000000        3       1.00000000       0.00000000       0.00000000       0.00000000       0.00000000       0.00000000       0.00000000
H        0.00000000       1.62013441      22.29121606        2       1.00000000       0.00000000       0.00000000       0.00000000       0.00000000       0.00000000       0.00000000
H        2.80615512       1.62013441      22.29121606        2       1.00000000       0.00000000       0.00000000       0.00000000       0.00000000       0.00000000       0.00000000
H        1.40307756       4.05033604      22.29121606        2       1.00000000       0.00000000       0.00000000       0.00000000       0.00000000       0.00000000       0.00000000
H        4.20923268       4.05033604      22.29121606        2       1.00000000       0.00000000       0.00000000       0.00000000       0.00000000       0.00000000       0.00000000
H        0.00000000       0.00000000      24.58243212        1       1.00000000       0.00000000       0.00000000       0.00000000       0.00000000       0.00000000       0.00000000
H        2.80615512       0.00000000      24.58243212        1       1.00000000       0.00000000       0.00000000       0.00000000       0.00000000       0.00000000       0.00000000
H        1.40307756       2.43020162      24.58243212        1       1.00000000       0.00000000       0.00000000       0.00000000       0.00000000       0.00000000       0.00000000
H        4.20923268       2.43020162      24.58243212        1       1.00000000       0.00000000       0.00000000       0.00000000       0.00000000       0.00000000       0.00000000
H        2.65783240       4.82491831      28.98720749        0       1.00000000      -0.00649644      -0.04906074      -0.11357781       0.02834450      -0.17366453      -0.00027715
H        1.38714054       2.32533524      29.14386017        0       1.00000000       0.07006125      -0.03258304      -0.12099309       0.07580000       0.34240703       0.17399159
H        5.61958593       1.56813484      26.78222499        0       1.00000000       0.23301430      -0.05554626       0.07443574      -0.40236618       0.02989616      -0.04942006
H        1.45543357       4.06388580      26.78882092        0       1.00000000      -0.11488389       0.07188823      -0.05651303       0.30667644      -0.10485590       0.08214648
H        5.52383664       4.78661001      29.01292400        0       1.00000000       0.04095576       0.03816706       0.16727764      -0.10585734      -0.07605472      -0.08795305
H        4.25164466       4.02430204      26.78639989        0       1.00000000      -0.03701901       0.07932882      -0.04975753       0.12227488      -0.15347923       0.18622796
H        2.80573878       1.61134153      26.77505184        0       1.00000000       0.03868003      -0.10277857      -0.10088290       0.12440724      -0.13245873      -0.03156787
H        4.24160203       2.39983558      29.10670228        0       1.00000000      -0.06103428      -0.02895823      -0.06985966      -0.15756972       0.12707226      -0.11142467
20
Lattice="5.612310241546866 0.0 0.0 0.0 4.860403243099165 0.0 0.0 0.0 44.58243212332868" Properties=species:S:1:pos:R:3:tags:I:1:masses:R:1:momenta:R:3:forces:R:3 KEmax=25.851991011651638 iter=37415 volume=1216.1236359717223 set_wall=T ns_energy=-13.444898924686647 last_walked_iter_clone=37320 energy=-13.548496843238308 stress="0.02195765609885348 0.0007689896897788611 0.0013890375386123707 0.0007689896897788611 0.02453430111729672 -0.0007149307818001193 0.0013890375386123707 -0.0007149307818001193 0.010067583227795785" pbc="T T F"
H        1.40307756       0.81006721      20.00000000        3       1.00000000       0.00000000       0.00000000       0.00000000       0.00000000       0.00000000       0.00000000
H        4.20923268       0.81006721      20.00000000        3       1.00000000       0.00000000       0.00000000       0.00000000       0.00000000       0.00000000       0.00000000
H        0.00000000       3.24026883      20.00000000        3       1.00000000       0.00000000       0.00000000       0.00000000       0.00000000       0.00000000       0.00000000
H        2.80615512       3.24026883      20.00000000        3       1.00000000       0.00000000       0.00000000       0.00000000       0.00000000       0.00000000       0.00000000
H        0.00000000       1.62013441      22.29121606        2       1.00000000       0.00000000       0.00000000       0.00000000       0.00000000       0.00000000       0.00000000
H        2.80615512       1.62013441      22.29121606        2       1.00000000       0.00000000       0.00000000       0.00000000       0.00000000       0.00000000       0.00000000
H        1.40307756       4.05033604      22.29121606        2       1.00000000       0.00000000       0.00000000       0.00000000       0.00000000       0.00000000       0.00000000
H        4.20923268       4.05033604      22.29121606        2       1.00000000       0.00000000       0.00000000       0.00000000       0.00000000       0.00000000       0.00000000
H        0.00000000       0.00000000      24.58243212        1       1.00000000       0.00000000       0.00000000       0.00000000       0.00000000       0.00000000       0.00000000
H        2.80615512       0.00000000      24.58243212        1       1.00000000       0.00000000       0.00000000       0.00000000       0.00000000       0.00000000       0.00000000
H        1.40307756       2.43020162      24.58243212        1       1.00000000       0.00000000       0.00000000       0.00000000       0.00000000       0.00000000       0.00000000
H        4.20923268       2.43020162      24.58243212        1       1.00000000       0.00000000       0.00000000       0.00000000       0.00000000       0.00000000       0.00000000
H        1.32923412       0.86682815      26.78351233        0       1.00000000      -0.06861761      -0.00802858       0.04383924       0.02834450      -0.17366453      -0.00027715
H        4.12493023       4.26679928      29.03900943        0       1.00000000       0.10656970      -0.01729808      -0.08663633       0.07580000       0.34240703       0.17399159
H        1.24520386       4.14606425      28.99378901        0       1.00000000      -0.09811916      -0.15005941       0.06270791      -0.40236618       0.02989616      -0.04942006
H        4.16117739       0.94216122      26.75348439        0       1.00000000      -0.10549261      -0.06111542       0.07195552       0.30667644      -0.10485590       0.08214648
H        5.61163028       3.28299300      26.78896449        0       1.00000000       0.10441372       0.08484935       0.10163676      -0.10585734      -0.07605472      -0.08795305
H        5.60887339       1.79372925      29.06110398        0       1.00000000      -0.15009191       0.06751962      -0.07023722       0.12227488      -0.15347923       0.18622796
H        2.82911177       3.36194456      26.86463477        0       1.00000000      -0.06141995       0.03291628      -0.02086571       0.12440724      -0.13245873      -0.03156787
H        2.75612999       1.77105311      29.03368841        0       1.00000000       0.13169293      -0.01304158       0.16194328      -0.15756972       0.12707226      -0.11142467
20
Lattice="5.612310241546866 0.0 0.0 0.0 4.860403243099165 0.0 0.0 0.0 44.58243212332868" Properties=species:S:1:pos:R:3:tags:I:1:masses:R:1:momenta:R:3:forces:R:3 KEmax=25.851991011651638 iter=37415 volume=1216.1236359717223 set_wall=T ns_energy=-13.440515476049244 last_walked_iter_clone=37341 energy=-13.548496843238308 stress="0.02195765609885348 0.0007689896897788611 0.0013890375386123707 0.0007689896897788611 0.02453430111729672 -0.0007149307818001193 0.0013890375386123707 -0.0007149307818001193 0.010067583227795785" pbc="T T F"
H        1.40307756       0.81006721      20.00000000        3       1.00000000       0.00000000       0.00000000       0.00000000       0.00000000       0.00000000       0.00000000
H        4.20923268       0.81006721      20.00000000        3       1.00000000       0.00000000       0.00000000       0.00000000       0.00000000       0.00000000       0.00000000
H        0.00000000       3.24026883      20.00000000        3       1.00000000       0.00000000       0.00000000       0.00000000       0.00000000       0.00000000       0.00000000
H        2.80615512       3.24026883      20.00000000        3       1.00000000       0.00000000       0.00000000       0.00000000       0.00000000       0.00000000       0.00000000
H        0.00000000       1.62013441      22.29121606        2       1.00000000       0.00000000       0.00000000       0.00000000       0.00000000       0.00000000       0.00000000
H        2.80615512       1.62013441      22.29121606        2       1.00000000       0.00000000       0.00000000       0.00000000       0.00000000       0.00000000       0.00000000
H        1.40307756       4.05033604      22.29121606        2       1.00000000       0.00000000       0.00000000       0.00000000       0.00000000       0.00000000       0.00000000
H        4.20923268       4.05033604      22.29121606        2       1.00000000       0.00000000       0.00000000       0.00000000       0.00000000       0.00000000       0.00000000
H        0.00000000       0.00000000      24.58243212        1       1.00000000       0.00000000       0.00000000       0.00000000       0.00000000       0.00000000       0.00000000
H        2.80615512       0.00000000      24.58243212        1       1.00000000       0.00000000       0.00000000       0.00000000       0.00000000       0.00000000       0.00000000
H        1.40307756       2.43020162      24.58243212        1       1.00000000       0.00000000       0.00000000       0.00000000       0.00000000       0.00000000       0.00000000
H        4.20923268       2.43020162      24.58243212        1       1.00000000       0.00000000       0.00000000       0.00000000       0.00000000       0.00000000       0.00000000
H        2.92718536       0.04295519      28.96180336        0       1.00000000      -0.00026980      -0.12770168       0.08475327       0.02834450      -0.17366453      -0.00027715
H        2.80138348       3.30634962      26.75961082        0       1.00000000      -0.07233639       0.02920608       0.06530463       0.07580000       0.34240703       0.17399159
H        4.34540462       0.91037053      26.81859751        0       1.00000000       0.05365116       0.05523610      -0.06191163      -0.40236618       0.02989616      -0.04942006
H        5.64627166       3.22705378      26.77795879        0       1.00000000       0.06842744      -0.00560380      -0.15685905       0.30667644      -0.10485590       0.08214648
H        1.33267070       2.42858558      28.98488691        0       1.00000000      -0.05085803      -0.11743685       0.02243438      -0.10585734      -0.07605472      -0.08795305
H        0.10365495       0.01000237      29.05279942        0       1.00000000       0.04922385       0.03346254       0.03848239       0.12227488      -0.15347923       0.18622796
H        1.42769758       0.82584898      26.73094577        0       1.00000000      -0.04088077      -0.02424930       0.14418741       0.12440724      -0.13245873      -0.03156787
H        4.13015745       2.46109851      28.94694741        0       1.00000000       0.06425559       0.01868358      -0.22913245      -0.15756972       0.12707226      -0.11142467
20
Lattice="5.612310241546866 0.0 0.0 0.0 4.860403243099165 0.0 0.0 0.0 44.58243212332868" Properties=species:S:1:pos:R:3:tags:I:1:masses:R:1:momenta:R:3:forces:R:3 KEmax=25.851991011651638 iter=37415 volume=1216.1236359717223 set_wall=T ns_energy=-13.440922432374109 last_walked_iter_clone=37113 energy=-13.548496843238308 stress="0.02195765609885348 0.0007689896897788611 0.0013890375386123707 0.0007689896897788611 0.02453430111729672 -0.0007149307818001193 0.0013890375386123707 -0.0007149307818001193 0.010067583227795785" pbc="T T F"
H        1.40307756       0.81006721      20.00000000        3       1.00000000       0.00000000       0.00000000       0.00000000       0.00000000       0.00000000       0.00000000
H        4.20923268       0.81006721      20.00000000        3       1.00000000       0.00000000       0.00000000       0.00000000       0.00000000       0.00000000       0.00000000
H        0.00000000       3.24026883      20.00000000        3       1.00000000       0.00000000       0.00000000       0.00000000       0.00000000       0.00000000       0.00000000
H        2.80615512       3.24026883      20.00000000        3       1.00000000       0.00000000       0.00000000       0.00000000       0.00000000       0.00000000       0.00000000
H        0.00000000       1.62013441      22.29121606        2       1.00000000       0.00000000       0.00000000       0.00000000       0.00000000       0.00000000       0.00000000
H        2.80615512       1.62013441      22.29121606        2       1.00000000       0.00000000       0.00000000       0.00000000       0.00000000       0.00000000       0.00000000
H        1.40307756       4.05033604      22.29121606        2       1.00000000       0.00000000       0.00000000       0.00000000       0.00000000       0.00000000       0.00000000
H        4.20923268       4.05033604      22.29121606        2       1.00000000       0.00000000       0.00000000       0.00000000       0.00000000       0.00000000       0.00000000
H        0.00000000       0.00000000      24.58243212        1       1.00000000       0.00000000       0.00000000       0.00000000       0.00000000       0.00000000       0.00000000
H        2.80615512       0.00000000      24.58243212        1       1.00000000       0.00000000       0.00000000       0.00000000       0.00000000       0.00000000       0.00000000
H        1.40307756       2.43020162      24.58243212        1       1.00000000       0.00000000       0.00000000       0.00000000       0.00000000       0.00000000       0.00000000
H        4.20923268       2.43020162      24.58243212        1       1.00000000       0.00000000       0.00000000       0.00000000       0.00000000       0.00000000       0.00000000
H        2.81539478       4.92190581      29.00973341        0       1.00000000       0.16316454       0.13440986      -0.03946094       0.02834450      -0.17366453      -0.00027715
H        1.46706810       2.41012237      29.15039088        0       1.00000000      -0.18000786      -0.03267182      -0.14750229       0.07580000       0.34240703       0.17399159
H        0.05339061       1.64369324      26.86838087        0       1.00000000       0.02532948      -0.20150993       0.01286627      -0.40236618       0.02989616      -0.04942006
H        1.49509506       4.11610196      26.87029845        0       1.00000000      -0.04399207      -0.06956376      -0.06210551       0.30667644      -0.10485590       0.08214648
H        5.66288565       4.91067248      29.12341481        0       1.00000000       0.02128470       0.01816764       0.03032090      -0.10585734      -0.07605472      -0.08795305
H        4.35144045       4.09314726      26.78508090        0       1.00000000       0.03918484      -0.07356054       0.00388401       0.12227488      -0.15347923       0.18622796
H        2.85509678       1.68369087      26.82285561        0       1.00000000      -0.08554827      -0.04792694      -0.17749902       0.12440724      -0.13245873      -0.03156787
H        4.20150807       2.42878723      29.12899581        0       1.00000000       0.00319655       0.02925451       0.08334737      -0.15756972       0.12707226      -0.11142467
20
Lattice="5.612310241546866 0.0 0.0 0.0 4.860403243099165 0.0 0.0 0.0 44.58243212332868" Properties=species:S:1:pos:R:3:tags:I:1:masses:R:1:momenta:R:3:forces:R:3 KEmax=25.851991011651638 iter=37415 volume=1216.1236359717223 set_wall=T ns_energy=-13.445396470121365 last_walked_iter_clone=37119 energy=-13.548496843238308 stress="0.02195765609885348 0.0007689896897788611 0.0013890375386123707 0.0007689896897788611 0.02453430111729672 -0.0007149307818001193 0.0013890375386123707 -0.0007149307818001193 0.010067583227795785" pbc="T T F"
H        1.40307756       0.81006721      20.00000000        3       1.00000000       0.00000000       0.00000000       0.00000000       0.00000000       0.00000000       0.00000000
H        4.20923268       0.81006721      20.00000000        3       1.00000000       0.00000000       0.00000000       0.00000000       0.00000000       0.00000000       0.00000000
H        0.00000000       3.24026883      20.00000000        3       1.00000000       0.00000000       0.00000000       0.00000000       0.00000000       0.00000000       0.00000000
H        2.80615512       3.24026883      20.00000000        3       1.00000000       0.00000000       0.00000000       0.00000000       0.00000000       0.00000000       0.00000000
H        0.00000000       1.62013441      22.29121606        2       1.00000000       0.00000000       0.00000000       0.00000000       0.00000000       0.00000000       0.00000000
H        2.80615512       1.62013441      22.29121606        2       1.00000000       0.00000000       0.00000000       0.00000000       0.00000000       0.00000000       0.00000000
H        1.40307756       4.05033604      22.29121606        2       1.00000000       0.00000000       0.00000000       0.00000000       0.00000000       0.00000000       0.00000000
H        4.20923268       4.05033604      22.29121606        2       1.00000000       0.00000000       0.00000000       0.00000000       0.00000000       0.00000000       0.00000000
H        0.00000000       0.00000000      24.58243212        1       1.00000000       0.00000000       0.00000000       0.00000000       0.00000000       0.00000000       0.00000000
H        2.80615512       0.00000000      24.58243212        1       1.00000000       0.00000000       0.00000000       0.00000000       0.00000000       0.00000000       0.00000000
H        1.40307756       2.43020162      24.58243212        1       1.00000000       0.00000000       0.00000000       0.00000000       0.00000000       0.00000000       0.00000000
H        4.20923268       2.43020162      24.58243212        1       1.00000000       0.00000000       0.00000000       0.00000000       0.00000000       0.00000000       0.00000000
H        2.72163825       0.03292569      29.06516215        0       1.00000000       0.13661646      -0.07034016       0.09267433       0.02834450      -0.17366453      -0.00027715
H        1.35461775       2.60487807      29.05967783        0       1.00000000      -0.09140789      -0.06551253      -0.06765194       0.07580000       0.34240703       0.17399159
H        0.12280599       1.63780373      26.78569163        0       1.00000000      -0.04382787      -0.02654902       0.02483545      -0.40236618       0.02989616      -0.04942006
H        1.42450811       4.08851667      26.80425048        0       1.00000000       0.02109440      -0.01012956       0.09841168       0.30667644      -0.10485590       0.08214648
H        5.51416044       0.04149055      29.02705163        0       1.00000000       0.03552929      -0.02255943       0.03851162      -0.10585734      -0.07605472      -0.08795305
H        4.20883635       4.12216869      26.80287980        0       1.00000000       0.02791780      -0.04584480       0.12634660       0.12227488      -0.15347923       0.18622796
H        2.81635550       1.58953313      26.85653894        0       1.00000000      -0.24077366       0.15339377      -0.01815808       0.12440724      -0.13245873      -0.03156787
H        4.17683816       2.54998287      28.94995943        0       1.00000000      -0.01080477       0.00322520      -0.04149992      -0.15756972       0.12707226      -0.11142467
20
Lattice="5.612310241546866 0.0 0.0 0.0 4.860403243099165 0.0 0.0 0.0 44.58243212332868" Properties=species:S:1:pos:R:3:tags:I:1:masses:R:1:momenta:R:3:forces:R:3 KEmax=25.851991011651638 iter=37415 volume=1216.1236359717223 set_wall=T ns_energy=-13.44328753152832 last_walked_iter_clone=37399 energy=-13.548496843238308 stress="0.02195765609885348 0.0007689896897788611 0.0013890375386123707 0.0007689896897788611 0.02453430111729672 -0.0007149307818001193 0.0013890375386123707 -0.0007149307818001193 0.010067583227795785" pbc="T T F"
H        1.40307756       0.81006721      20.00000000        3       1.00000000       0.00000000       0.00000000       0.00000000       0.00000000       0.00000000       0.00000000
H        4.20923268       0.81006721      20.00000000        3       1.00000000       0.00000000       0.00000000       0.00000000       0.00000000       0.00000000       0.00000000
H        0.00000000       3.24026883      20.00000000        3       1.00000000       0.00000000       0.00000000       0.00000000       0.00000000       0.00000000       0.00000000
H        2.80615512       3.24026883      20.00000000        3       1.00000000       0.00000000       0.00000000       0.00000000       0.00000000       0.00000000       0.00000000
H        0.00000000       1.62013441      22.29121606        2       1.00000000       0.00000000       0.00000000       0.00000000       0.00000000       0.00000000       0.00000000
H        2.80615512       1.62013441      22.29121606        2       1.00000000       0.00000000       0.00000000       0.00000000       0.00000000       0.00000000       0.00000000
H        1.40307756       4.05033604      22.29121606        2       1.00000000       0.00000000       0.00000000       0.00000000       0.00000000       0.00000000       0.00000000
H        4.20923268       4.05033604      22.29121606        2       1.00000000       0.00000000       0.00000000       0.00000000       0.00000000       0.00000000       0.00000000
H        0.00000000       0.00000000      24.58243212        1       1.00000000       0.00000000       0.00000000       0.00000000       0.00000000       0.00000000       0.00000000
H        2.80615512       0.00000000      24.58243212        1       1.00000000       0.00000000       0.00000000       0.00000000       0.00000000       0.00000000       0.00000000
H        1.40307756       2.43020162      24.58243212        1       1.00000000       0.00000000       0.00000000       0.00000000       0.00000000       0.00000000       0.00000000
H        4.20923268       2.43020162      24.58243212        1       1.00000000       0.00000000       0.00000000       0.00000000       0.00000000       0.00000000       0.00000000
H        2.76181173       0.02761225      29.04936383        0       1.00000000      -0.00513917      -0.06073960       0.04237687       0.02834450      -0.17366453      -0.00027715
H        1.35844331       2.44906359      29.15111995        0       1.00000000      -0.04731105       0.03418937       0.00934280       0.07580000       0.34240703       0.17399159
H        5.68125095       1.61214105      26.81308728        0       1.00000000       0.00644467       0.12764871       0.08474297      -0.40236618       0.02989616      -0.04942006
H        1.42039589       4.05426718      26.72090415        0       1.00000000      -0.02747636       0.11940431       0.13032255       0.30667644      -0.10485590       0.08214648
H       -0.09192133       0.08283267      29.06281128        0       1.00000000       0.04785196      -0.09024837      -0.00585905      -0.10585734      -0.07605472      -0.08795305
H        4.27989408       4.08345616      26.82375719        0       1.00000000       0.09876348      -0.02604198       0.08840779       0.12227488      -0.15347923       0.18622796
H        2.80458028       1.64032627      26.74704098        0       1.00000000       0.12632879       0.13695552      -0.01938361       0.12440724      -0.13245873      -0.03156787
H        4.28073111       2.42743792      29.11954962        0       1.00000000       0.01299158      -0.09473529      -0.03031241      -0.15756972       0.12707226      -0.11142467
20
Lattice="5.612310241546866 0.0 0.0 0.0 4.860403243099165 0.0 0.0 0.0 44.58243212332868" Properties=species:S:1:pos:R:3:tags:I:1:masses:R:1:momenta:R:3:forces:R:3 KEmax=25.851991011651638 iter=37415 volume=1216.1236359717223 set_wall=T ns_energy=-13.440874119857178 last_walked_iter_clone=37253 energy=-13.548496843238308 stress="0.02195765609885348 0.0007689896897788611 0.0013890375386123707 0.0007689896897788611 0.02453430111729672 -0.0007149307818001193 0.0013890375386123707 -0.0007149307818001193 0.010067583227795785" pbc="T T F"
H        1.40307756       0.81006721      20.00000000        3       1.00000000       0.00000000       0.00000000       0.00000000       0.00000000       0.00000000       0.00000000