19
Lattice="5.612310241546866 0.0 0.0 0.0 4.860403243099165 0.0 0.0 0.0 24.582432123328676" Properties=species:S:1:pos:R:3:tags:I:1:masses:R:1:momenta:R:3:forces:R:3 KEmax=24.559391461069055 iter=107315 volume=670.5618179858607 ns_energy=-12.522441159295887 last_walked_iter_clone=107090 energy=-12.522441159299577 stress="0.024002371381694296 -2.220532450827791e-08 2.3557392519841103e-09 -2.220532450827791e-08 0.024130215019528663 -6.478821249779199e-11 2.3557392519841103e-09 -6.478821249779199e-11 0.012808374326767364" pbc="T T F"
H        1.40307756       0.81006721      10.00000000        3       1.00000000       0.00000000       0.00000000       0.00000000       0.00000000       0.00000000       0.00000000
H        4.20923268       0.81006721      10.00000000        3       1.00000000       0.00000000       0.00000000       0.00000000       0.00000000       0.00000000       0.00000000
H        0.00000000       3.24026883      10.00000000        3       1.00000000       0.00000000       0.00000000       0.00000000       0.00000000       0.00000000       0.00000000
H        2.80615512       3.24026883      10.00000000        3       1.00000000       0.00000000       0.00000000       0.00000000       0.00000000       0.00000000       0.00000000
H        0.00000000       1.62013441      12.29121606        2       1.00000000       0.00000000       0.00000000       0.00000000       0.00000000       0.00000000       0.00000000
H        2.80615512       1.62013441      12.29121606        2       1.00000000       0.00000000       0.00000000       0.00000000       0.00000000       0.00000000       0.00000000
H        1.40307756       4.05033604      12.29121606        2       1.00000000       0.00000000       0.00000000       0.00000000       0.00000000       0.00000000       0.00000000
H        4.20923268       4.05033604      12.29121606        2       1.00000000       0.00000000       0.00000000       0.00000000       0.00000000       0.00000000       0.00000000
H        0.00000000       0.00000000      14.58243212        1       1.00000000       0.00000000       0.00000000       0.00000000       0.00000000       0.00000000       0.00000000
H        2.80615512       0.00000000      14.58243212        1       1.00000000       0.00000000       0.00000000       0.00000000       0.00000000       0.00000000       0.00000000
H        1.40307756       2.43020162      14.58243212        1       1.00000000       0.00000000       0.00000000       0.00000000       0.00000000       0.00000000       0.00000000
H        4.20923268       2.43020162      14.58243212        1       1.00000000       0.00000000       0.00000000       0.00000000       0.00000000       0.00000000       0.00000000
H        0.00000086       1.62013471       7.77136762        0       1.00000000       0.00000099      -0.00000065      -0.00000010      -0.00000134      -0.00000217       0.00000182
H        2.80615485       3.24027617      16.81070526        0       1.00000000      -0.00000001      -0.00000033      -0.00000028      -0.00000069      -0.00000105       0.00000114
H        4.20923317       4.05033654       7.77136823        0       1.00000000       0.00000263      -0.00000038       0.00000085       0.00000288       0.00000050       0.00000038
H        4.21227506       0.81007553      16.81071163        0       1.00000000      -0.00000056      -0.00000106      -0.00000100       0.00000129       0.00000162       0.00000444
H        2.80615675       1.62013451       7.77136712        0       1.00000000       0.00000004      -0.00000096      -0.00000006       0.00000104       0.00000018      -0.00000289
H        1.40003513       0.81007681      16.81071132        0       1.00000000      -0.00000098      -0.00000134      -0.00000091       0.00000098      -0.00000000      -0.00000197
H        1.40307764       4.05033564       7.77136688        0       1.00000000       0.00000038       0.00000091      -0.00000125      -0.00000072       0.00000202      -0.00000221
19
Lattice="5.612310241546866 0.0 0.0 0.0 4.860403243099165 0.0 0.0 0.0 24.582432123328676" Properties=species:S:1:pos:R:3:tags:I:1:masses:R:1:momenta:R:3:forces:R:3 KEmax=24.559391461069055 iter=107315 volume=670.5618179858607 ns_energy=-12.52244115929483 last_walked_iter_clone=107119 energy=-12.522441159299577 stress="0.024002371381694296 -2.220532450827791e-08 2.3557392519841103e-09 -2.220532450827791e-08 0.024130215019528663 -6.478821249779199e-11 2.3557392519841103e-09 -6.478821249779199e-11 0.012808374326767364" pbc="T T F"
H        1.40307756       0.81006721      10.00000000        3       1.00000000       0.00000000       0.00000000       0.00000000       0.00000000       0.00000000       0.00000000
H        4.20923268       0.81006721      10.00000000        3       1.00000000       0.00000000       0.00000000       0.00000000       0.00000000       0.00000000       0.00000000
H        0.00000000       3.24026883      10.00000000        3       1.00000000       0.00000000       0.00000000       0.00000000       0.00000000       0.00000000       0.00000000
H        2.80615512       3.24026883      10.00000000        3       1.00000000       0.00000000       0.00000000       0.00000000       0.00000000       0.00000000       0.00000000
H        0.00000000       1.62013441      12.29121606        2       1.00000000       0.00000000       0.00000000       0.00000000       0.00000000       0.00000000       0.00000000
H        2.80615512       1.62013441      12.29121606        2       1.00000000       0.00000000       0.00000000       0.00000000       0.00000000       0.00000000       0.00000000
H        1.40307756       4.05033604      12.29121606        2       1.00000000       0.00000000       0.00000000       0.00000000       0.00000000       0.00000000       0.00000000
H        4.20923268       4.05033604      12.29121606        2       1.00000000       0.00000000       0.00000000       0.00000000       0.00000000       0.00000000       0.00000000
H        0.00000000       0.00000000      14.58243212        1       1.00000000       0.00000000       0.00000000       0.00000000       0.00000000       0.00000000       0.00000000
H        2.80615512       0.00000000      14.58243212        1       1.00000000       0.00000000       0.00000000       0.00000000       0.00000000       0.00000000       0.00000000
H        1.40307756       2.43020162      14.58243212        1       1.00000000       0.00000000       0.00000000       0.00000000       0.00000000       0.00000000       0.00000000
H        4.20923268       2.43020162      14.58243212        1       1.00000000       0.00000000       0.00000000       0.00000000       0.00000000       0.00000000       0.00000000
H        0.00000034       1.62013446       7.77136670        0       1.00000000       0.00000066       0.00000039      -0.00000022      -0.00000134      -0.00000217       0.00000182
H        2.80615618       3.24027763      16.81070500        0       1.00000000      -0.00000008       0.00000153       0.00000103      -0.00000069      -0.00000105       0.00000114
H        4.20923241       4.05033636       7.77136656        0       1.00000000       0.00000015       0.00000248       0.00000117       0.00000288       0.00000050       0.00000038
H        4.21227457       0.81007679      16.81071066        0       1.00000000      -0.00000019       0.00000128      -0.00000200       0.00000129       0.00000162       0.00000444
H        2.80615549       1.62013461       7.77136731        0       1.00000000       0.00000036      -0.00000096      -0.00000001       0.00000104       0.00000018      -0.00000289
H        1.40003549       0.81007610      16.81071103        0       1.00000000      -0.00000043       0.00000009       0.00000083       0.00000098      -0.00000000      -0.00000197
H        1.40307688       4.05033682       7.77136773        0       1.00000000       0.00000074       0.00000086       0.00000113      -0.00000072       0.00000202      -0.00000221
19
Lattice="5.612310241546866 0.0 0.0 0.0 4.860403243099165 0.0 0.0 0.0 24.582432123328676" Properties=species:S:1:pos:R:3:tags:I:1:masses:R:1:momenta:R:3:forces:R:3 KEmax=24.559391461069055 iter=107315 volume=670.5618179858607 ns_energy=-12.522441159294868 last_walked_iter_clone=106947 energy=-12.522441159299577 stress="0.024002371381694296 -2.220532450827791e-08 2.3557392519841103e-09 -2.220532450827791e-08 0.024130215019528663 -6.478821249779199e-11 2.3557392519841103e-09 -6.478821249779199e-11 0.012808374326767364" pbc="T T F"
H        1.40307756       0.81006721      10.00000000        3       1.00000000       0.00000000       0.00000000       0.00000000       0.00000000       0.00000000       0.00000000
H        4.20923268       0.81006721      10.00000000        3       1.00000000       0.00000000       0.00000000       0.00000000       0.00000000       0.00000000       0.00000000
H        0.00000000       3.24026883      10.00000000        3       1.00000000       0.00000000       0.00000000       0.00000000       0.00000000       0.00000000       0.00000000
H        2.80615512       3.24026883      10.00000000        3       1.00000000       0.00000000       0.00000000       0.00000000       0.00000000       0.00000000       0.00000000
H        0.00000000       1.62013441      12.29121606        2       1.00000000       0.00000000       0.00000000       0.00000000       0.00000000       0.00000000       0.00000000
H        2.80615512       1.62013441      12.29121606        2       1.00000000       0.00000000       0.00000000       0.00000000       0.00000000       0.00000000       0.00000000
H        1.40307756       4.05033604      12.29121606        2       1.00000000       0.00000000       0.00000000       0.00000000       0.00000000       0.00000000       0.00000000
H        4.20923268       4.05033604      12.29121606        2       1.00000000       0.00000000       0.00000000       0.00000000       0.00000000       0.00000000       0.00000000
H        0.00000000       0.00000000      14.58243212        1       1.00000000       0.00000000       0.00000000       0.00000000       0.00000000       0.00000000       0.00000000
H        2.80615512       0.00000000      14.58243212        1       1.00000000       0.00000000       0.00000000       0.00000000       0.00000000       0.00000000       0.00000000
H        1.40307756       2.43020162      14.58243212        1       1.00000000       0.00000000       0.00000000       0.00000000       0.00000000       0.00000000       0.00000000
H        4.20923268       2.43020162      14.58243212        1       1.00000000       0.00000000       0.00000000       0.00000000       0.00000000       0.00000000       0.00000000
H       -0.00000051       1.62013470       7.77136723        0       1.00000000      -0.00000072      -0.00000164       0.00000009      -0.00000134      -0.00000217       0.00000182
H        2.80615514       3.24027721      16.81070540        0       1.00000000       0.00000003      -0.00000095       0.00000102      -0.00000069      -0.00000105       0.00000114
H        4.20923261       4.05033588       7.77136665        0       1.00000000       0.00000018       0.00000083       0.00000033       0.00000288       0.00000050       0.00000038
H        4.21227442       0.81007635      16.81071097        0       1.00000000      -0.00000059      -0.00000048      -0.00000054       0.00000129       0.00000162       0.00000444
H        2.80615455       1.62013453       7.77136727        0       1.00000000       0.00000238      -0.00000073      -0.00000021       0.00000104       0.00000018      -0.00000289
H        1.40003537       0.81007661      16.81071102        0       1.00000000       0.00000038       0.00000314      -0.00000240       0.00000098      -0.00000000      -0.00000197
H        1.40307746       4.05033601       7.77136777        0       1.00000000      -0.00000019      -0.00000055      -0.00000011      -0.00000072       0.00000202      -0.00000221
19
Lattice="5.612310241546866 0.0 0.0 0.0 4.860403243099165 0.0 0.0 0.0 24.582432123328676" Properties=species:S:1:pos:R:3:tags:I:1:masses:R:1:momenta:R:3:forces:R:3 KEmax=24.559391461069055 iter=107315 volume=670.5618179858607 ns_energy=-12.522441159294427 last_walked_iter_clone=106618 energy=-12.522441159299577 stress="0.024002371381694296 -2.220532450827791e-08 2.3557392519841103e-09 -2.220532450827791e-08 0.024130215019528663 -6.478821249779199e-11 2.3557392519841103e-09 -6.478821249779199e-11 0.012808374326767364" pbc="T T F"
H        1.40307756       0.81006721      10.00000000        3       1.00000000       0.00000000       0.00000000       0.00000000       0.00000000       0.00000000       0.00000000
H        4.20923268       0.81006721      10.00000000        3       1.00000000       0.00000000       0.00000000       0.00000000       0.00000000       0.00000000       0.00000000
H        0.00000000       3.24026883      10.00000000        3       1.00000000       0.00000000       0.00000000       0.00000000       0.00000000       0.00000000       0.00000000
H        2.80615512       3.24026883      10.00000000        3       1.00000000       0.00000000       0.00000000       0.00000000       0.00000000       0.00000000       0.00000000
H        0.00000000       1.62013441      12.29121606        2       1.00000000       0.00000000       0.00000000       0.00000000       0.00000000       0.00000000       0.00000000
H        2.80615512       1.62013441      12.29121606        2       1.00000000       0.00000000       0.00000000       0.00000000       0.00000000       0.00000000       0.00000000
H        1.40307756       4.05033604      12.29121606        2       1.00000000       0.00000000       0.00000000       0.00000000       0.00000000       0.00000000       0.00000000
H        4.20923268       4.05033604      12.29121606        2       1.00000000       0.00000000       0.00000000       0.00000000       0.00000000       0.00000000       0.00000000
H        0.00000000       0.00000000      14.58243212        1       1.00000000       0.00000000       0.00000000       0.00000000       0.00000000       0.00000000       0.00000000
H        2.80615512       0.00000000      14.58243212        1       1.00000000       0.00000000       0.00000000       0.00000000       0.00000000       0.00000000       0.00000000
H        1.40307756       2.43020162      14.58243212        1       1.00000000       0.00000000       0.00000000       0.00000000       0.00000000       0.00000000       0.00000000
H        4.20923268       2.43020162      14.58243212        1       1.00000000       0.00000000       0.00000000       0.00000000       0.00000000       0.00000000       0.00000000
H        0.00000043       1.62013347       7.77136774        0       1.00000000      -0.00000020       0.00000066      -0.00000026      -0.00000134      -0.00000217       0.00000182
H        2.80615549       3.24027551      16.81070480        0       1.00000000      -0.00000058      -0.00000069       0.00000049      -0.00000069      -0.00000105       0.00000114
H        4.20923183       4.05033653       7.77136750        0       1.00000000       0.00000047      -0.00000172      -0.00000083       0.00000288       0.00000050       0.00000038
H        4.21227435       0.81007597      16.81071029        0       1.00000000      -0.00000126      -0.00000160      -0.00000004       0.00000129       0.00000162       0.00000444
H        2.80615493       1.62013435       7.77136774        0       1.00000000      -0.00000073       0.00000045       0.00000084       0.00000104       0.00000018      -0.00000289
H        1.40003540       0.81007679      16.81071083        0       1.00000000       0.00000121      -0.00000173       0.00000109       0.00000098      -0.00000000      -0.00000197
H        1.40307729       4.05033550       7.77136759        0       1.00000000      -0.00000007      -0.00000155      -0.00000043      -0.00000072       0.00000202      -0.00000221
19
Lattice="5.612310241546866 0.0 0.0 0.0 4.860403243099165 0.0 0.0 0.0 24.582432123328676" Properties=species:S:1:pos:R:3:tags:I:1:masses:R:1:momenta:R:3:forces:R:3 KEmax=24.559391461069055 iter=107315 volume=670.5618179858607 ns_energy=-12.522441159295948 last_walked_iter_clone=106967 energy=-12.522441159299577 stress="0.024002371381694296 -2.220532450827791e-08 2.3557392519841103e-09 -2.220532450827791e-08 0.024130215019528663 -6.478821249779199e-11 2.3557392519841103e-09 -6.478821249779199e-11 0.012808374326767364" pbc="T T F"
H        1.40307756       0.81006721      10.00000000        3       1.00000000       0.00000000       0.00000000       0.00000000       0.00000000       0.00000000       0.00000000
H        4.20923268       0.81006721      10.00000000        3       1.00000000       0.00000000       0.00000000       0.00000000       0.00000000       0.00000000       0.00000000
H        0.00000000       3.24026883      10.00000000        3       1.00000000       0.00000000       0.00000000       0.00000000       0.00000000       0.00000000       0.00000000
H        2.80615512       3.24026883      10.00000000        3       1.00000000       0.00000000       0.00000000       0.00000000       0.00000000       0.00000000       0.00000000
H        0.00000000       1.62013441      12.29121606        2       1.00000000       0.00000000       0.00000000       0.00000000       0.00000000       0.00000000       0.00000000
H        2.80615512       1.62013441      12.29121606        2       1.00000000       0.00000000       0.00000000       0.00000000       0.00000000       0.00000000       0.00000000
H        1.40307756       4.05033604      12.29121606        2       1.00000000       0.00000000       0.00000000       0.00000000       0.00000000       0.00000000       0.00000000
H        4.20923268       4.05033604      12.29121606        2       1.00000000       0.00000000       0.00000000       0.00000000       0.00000000       0.00000000       0.00000000
H        0.00000000       0.00000000      14.58243212        1       1.00000000       0.00000000       0.00000000       0.00000000       0.00000000       0.00000000       0.00000000
H        2.80615512       0.00000000      14.58243212        1       1.00000000       0.00000000       0.00000000       0.00000000       0.00000000       0.00000000       0.00000000
H        1.40307756       2.43020162      14.58243212        1       1.00000000       0.00000000       0.00000000       0.00000000       0.00000000       0.00000000       0.00000000
H        4.20923268       2.43020162      14.58243212        1       1.00000000       0.00000000       0.00000000       0.00000000       0.00000000       0.00000000       0.00000000
H       -0.00000060       1.62013465       7.77136794        0       1.00000000       0.00000117      -0.00000098      -0.00000143      -0.00000134      -0.00000217       0.00000182
H        2.80615571       3.24027776      16.81070531        0       1.00000000      -0.00000035       0.00000102      -0.00000056      -0.00000069      -0.00000105       0.00000114
H        4.20923240       4.05033677       7.77136753        0       1.00000000       0.00000111       0.00000046       0.00000098       0.00000288       0.00000050       0.00000038
H        4.21227465       0.81007786      16.81071084        0       1.00000000      -0.00000034      -0.00000027       0.00000168       0.00000129       0.00000162       0.00000444
H        2.80615459       1.62013461       7.77136697        0       1.00000000      -0.00000200      -0.00000027       0.00000018       0.00000104       0.00000018      -0.00000289
H        1.40003576       0.81007756      16.81071109        0       1.00000000       0.00000101      -0.00000195      -0.00000100       0.00000098      -0.00000000      -0.00000197
H        1.40307633       4.05033542       7.77136735        0       1.00000000       0.00000014      -0.00000058       0.00000074      -0.00000072       0.00000202      -0.00000221
19
Lattice="5.612310241546866 0.0 0.0 0.0 4.860403243099165 0.0 0.0 0.0 24.582432123328676" Properties=species:S:1:pos:R:3:tags:I:1:masses:R:1:momenta:R:3:forces:R:3 KEmax=24.559391461069055 iter=107315 volume=670.5618179858607 ns_energy=-12.522441159294837 last_walked_iter_clone=106913 energy=-12.522441159299577 stress="0.024002371381694296 -2.220532450827791e-08 2.3557392519841103e-09 -2.220532450827791e-08 0.024130215019528663 -6.478821249779199e-11 2.3557392519841103e-09 -6.478821249779199e-11 0.012808374326767364" pbc="T T F"
H        1.40307756       0.81006721      10.00000000        3       1.00000000       0.00000000       0.00000000       0.00000000       0.00000000       0.00000000       0.00000000
H        4.20923268       0.81006721      10.00000000        3       1.00000000       0.00000000       0.00000000       0.00000000       0.00000000       0.00000000       0.00000000
H        0.00000000       3.24026883      10.00000000        3       1.00000000       0.00000000       0.00000000       0.00000000       0.00000000       0.00000000       0.00000000
H        2.80615512       3.24026883      10.00000000        3       1.00000000       0.00000000       0.00000000       0.00000000       0.00000000       0.00000000       0.00000000
H        0.00000000       1.62013441      12.29121606        2       1.00000000       0.00000000       0.00000000       0.00000000       0.00000000       0.00000000       0.00000000
H        2.80615512       1.62013441      12.29121606        2       1.00000000       0.00000000       0.00000000       0.00000000       0.00000000       0.00000000       0.00000000
H        1.40307756       4.05033604      12.29121606        2       1.00000000       0.00000000       0.00000000       0.00000000       0.00000000       0.00000000       0.00000000
H        4.20923268       4.05033604      12.29121606        2       1.00000000       0.00000000       0.00000000       0.00000000       0.00000000       0.00000000       0.00000000
H        0.00000000       0.00000000      14.58243212        1       1.00000000       0.00000000       0.00000000       0.00000000       0.00000000       0.00000000       0.00000000
H        2.80615512       0.00000000      14.58243212        1       1.00000000       0.00000000       0.00000000       0.00000000       0.00000000       0.00000000       0.00000000
H        1.40307756       2.43020162      14.58243212        1       1.00000000       0.00000000       0.00000000       0.00000000       0.00000000       0.00000000       0.00000000
H        4.20923268       2.43020162      14.58243212        1       1.00000000       0.00000000       0.00000000       0.00000000       0.00000000       0.00000000       0.00000000
H       -0.00000099       1.62013451       7.77136768        0       1.00000000      -0.00000043      -0.00000023       0.00000029      -0.00000134      -0.00000217       0.00000182
H        2.80615579       3.24027753      16.81070525        0       1.00000000       0.00000190      -0.00000014       0.00000193      -0.00000069      -0.00000105       0.00000114
H        4.20923180       4.05033653       7.77136693        0       1.00000000      -0.00000085       0.00000033       0.00000026       0.00000288       0.00000050       0.00000038
H        4.21227501       0.81007621      16.81071155        0       1.00000000       0.00000148       0.00000069      -0.00000140       0.00000129       0.00000162       0.00000444
H        2.80615334       1.62013562       7.77136823        0       1.00000000       0.00000074      -0.00000072       0.00000029       0.00000104       0.00000018      -0.00000289
H        1.40003575       0.81007727      16.81071061        0       1.00000000       0.00000101       0.00000033       0.00000059       0.00000098      -0.00000000      -0.00000197
H        1.40307641       4.05033640       7.77136800        0       1.00000000       0.00000045       0.00000063      -0.00000065      -0.00000072       0.00000202      -0.00000221
19
Lattice="5.612310241546866 0.0 0.0 0.0 4.860403243099165 0.0 0.0 0.0 24.582432123328676" Properties=species:S:1:pos:R:3:tags:I:1:masses:R:1:momenta:R:3:forces:R:3 KEmax=24.559391461069055 iter=107315 volume=670.5618179858607 ns_energy=-12.522441159295246 last_walked_iter_clone=107105 energy=-12.522441159299577 stress="0.024002371381694296 -2.220532450827791e-08 2.3557392519841103e-09 -2.220532450827791e-08 0.024130215019528663 -6.478821249779199e-11 2.3557392519841103e-09 -6.478821249779199e-11 0.012808374326767364" pbc="T T F"
H        1.40307756       0.81006721      10.00000000        3       1.00000000       0.00000000       0.00000000       0.00000000       0.00000000       0.00000000       0.00000000
H        4.20923268       0.81006721      10.00000000        3       1.00000000       0.00000000       0.00000000       0.00000000       0.00000000       0.00000000       0.00000000
H        0.00000000       3.24026883      10.00000000        3       1.00000000       0.00000000       0.00000000       0.00000000       0.00000000       0.00000000       0.00000000
H        2.80615512       3.24026883      10.00000000        3       1.00000000       0.00000000       0.00000000       0.00000000       0.00000000       0.00000000       0.00000000
H        0.00000000       1.62013441      12.29121606        2       1.00000000       0.00000000       0.00000000       0.00000000       0.00000000       0.00000000       0.00000000
H        2.80615512       1.62013441      12.29121606        2       1.00000000       0.00000000       0.00000000       0.00000000       0.00000000       0.00000000       0.00000000
H        1.40307756       4.05033604      12.29121606        2       1.00000000       0.00000000       0.00000000       0.00000000       0.00000000       0.00000000       0.00000000
H        4.20923268       4.05033604      12.29121606        2       1.00000000       0.00000000       0.00000000       0.00000000       0.00000000       0.00000000       0.00000000
H        0.00000000       0.00000000      14.58243212        1       1.00000000       0.00000000       0.00000000       0.00000000       0.00000000       0.00000000       0.00000000
H        2.80615512       0.00000000      14.58243212        1       1.00000000       0.00000000       0.00000000       0.00000000       0.00000000       0.00000000       0.00000000
H        1.40307756       2.43020162      14.58243212        1       1.00000000       0.00000000       0.00000000       0.00000000       0.00000000       0.00000000       0.00000000
H        4.20923268       2.43020162      14.58243212        1       1.00000000       0.00000000       0.00000000       0.00000000       0.00000000       0.00000000       0.00000000
H        5.61230997       1.62013387       7.77136724        0       1.00000000       0.00000107      -0.00000138       0.00000203      -0.00000134      -0.00000217       0.00000182
H        2.80615518       3.24027711      16.81070534        0       1.00000000      -0.00000017       0.00000096       0.00000013      -0.00000069      -0.00000105       0.00000114
H        4.20923295       4.05033540       7.77136665        0       1.00000000       0.00000300       0.00000001       0.00000003       0.00000288       0.00000050       0.00000038
H        4.21227437       0.81007569      16.81071098        0       1.00000000      -0.00000083      -0.00000022      -0.00000196       0.00000129       0.00000162       0.00000444
H        2.80615448       1.62013495       7.77136726        0       1.00000000      -0.00000007       0.00000010      -0.00000029       0.00000104       0.00000018      -0.00000289
H        1.40003542       0.81007700      16.81071108        0       1.00000000      -0.00000109       0.00000020      -0.00000009       0.00000098      -0.00000000      -0.00000197
H        1.40307742       4.05033602       7.77136776        0       1.00000000      -0.00000031       0.00000072       0.00000037      -0.00000072       0.00000202      -0.00000221
19
Lattice="5.612310241546866 0.0 0.0 0.0 4.860403243099165 0.0 0.0 0.0 24.582432123328676" Properties=species:S:1:pos:R:3:tags:I:1:masses:R:1:momenta:R:3:forces:R:3 KEmax=24.559391461069055 iter=107315 volume=670.5618179858607 ns_energy=-12.52244115929435 last_walked_iter_clone=107091 energy=-12.522441159299577 stress="0.024002371381694296 -2.220532450827791e-08 2.3557392519841103e-09 -2.220532450827791e-08 0.024130215019528663 -6.478821249779199e-11 2.3557392519841103e-09 -6.478821249779199e-11 0.012808374326767364" pbc="T T F"
H        1.40307756       0.81006721      10.00000000        3       1.00000000       0.00000000       0.00000000       0.00000000       0.00000000       0.00000000       0.00000000
H        4.20923268       0.81006721      10.00000000        3       1.00000000       0.00000000       0.00000000       0.00000000       0.00000000       0.00000000       0.00000000
H        0.00000000       3.24026883      10.00000000        3       1.00000000       0.00000000       0.00000000       0.00000000       0.00000000       0.00000000       0.00000000
H        2.80615512       3.24026883      10.00000000        3       1.00000000       0.00000000       0.00000000       0.00000000       0.00000000       0.00000000       0.00000000
H        0.00000000       1.62013441      12.29121606        2       1.00000000       0.00000000       0.00000000       0.00000000       0.00000000       0.00000000       0.00000000
H        2.80615512       1.62013441      12.29121606        2       1.00000000       0.00000000       0.00000000       0.00000000       0.00000000       0.00000000       0.00000000
H        1.40307756       4.05033604      12.29121606        2       1.00000000       0.00000000       0.00000000       0.00000000       0.00000000       0.00000000       0.00000000
H        4.20923268       4.05033604      12.29121606        2       1.00000000       0.00000000       0.00000000       0.00000000       0.00000000       0.00000000       0.00000000