19
Lattice="5.612310241546866 0.0 0.0 0.0 4.860403243099165 0.0 0.0 0.0 24.582432123328676" Properties=species:S:1:pos:R:3:tags:I:1:masses:R:1:momenta:R:3:forces:R:3 KEmax=24.559391461069055 iter=77651 volume=670.5618179858607 ns_energy=-12.522441155352178 last_walked_iter_clone=77609 energy=-12.522441157317747 stress="0.024002232722361547 3.551813103550225e-07 -2.443582911652598e-07 3.551813103550225e-07 0.024130019305949876 -1.6837732312713147e-07 -2.443582911652598e-07 -1.6837732312713147e-07 0.012807895271799787" pbc="T T F"
H        1.40307756       0.81006721      10.00000000        3       1.00000000       0.00000000       0.00000000       0.00000000       0.00000000       0.00000000       0.00000000
H        4.20923268       0.81006721      10.00000000        3       1.00000000       0.00000000       0.00000000       0.00000000       0.00000000       0.00000000       0.00000000
H        0.00000000       3.24026883      10.00000000        3       1.00000000       0.00000000       0.00000000       0.00000000       0.00000000       0.00000000       0.00000000
H        2.80615512       3.24026883      10.00000000        3       1.00000000       0.00000000       0.00000000       0.00000000       0.00000000       0.00000000       0.00000000
H        0.00000000       1.62013441      12.29121606        2       1.00000000       0.00000000       0.00000000       0.00000000       0.00000000       0.00000000       0.00000000
H        2.80615512       1.62013441      12.29121606        2       1.00000000       0.00000000       0.00000000       0.00000000       0.00000000       0.00000000       0.00000000
H        1.40307756       4.05033604      12.29121606        2       1.00000000       0.00000000       0.00000000       0.00000000       0.00000000       0.00000000       0.00000000
H        4.20923268       4.05033604      12.29121606        2       1.00000000       0.00000000       0.00000000       0.00000000       0.00000000       0.00000000       0.00000000
H        0.00000000       0.00000000      14.58243212        1       1.00000000       0.00000000       0.00000000       0.00000000       0.00000000       0.00000000       0.00000000
H        2.80615512       0.00000000      14.58243212        1       1.00000000       0.00000000       0.00000000       0.00000000       0.00000000       0.00000000       0.00000000
H        1.40307756       2.43020162      14.58243212        1       1.00000000       0.00000000       0.00000000       0.00000000       0.00000000       0.00000000       0.00000000
H        4.20923268       2.43020162      14.58243212        1       1.00000000       0.00000000       0.00000000       0.00000000       0.00000000       0.00000000       0.00000000
H       -0.00000517       1.62012846       7.77139048        0       1.00000000       0.00000781      -0.00000235       0.00001726      -0.00005343       0.00002245      -0.00001367
H        2.80614235       3.24026349      16.81069637        0       1.00000000      -0.00000667       0.00001072      -0.00001733       0.00001556       0.00000102      -0.00000376
H        4.20924428       4.05034772       7.77137748        0       1.00000000       0.00000238       0.00000743       0.00000502       0.00003122       0.00000051       0.00001221
H        4.21226573       0.81006171      16.81072271        0       1.00000000       0.00001263       0.00000266       0.00002287      -0.00001470      -0.00001667       0.00002259
H        2.80615630       1.62013580       7.77137055        0       1.00000000      -0.00001527       0.00000273       0.00000552       0.00001861       0.00000081      -0.00002257
H        1.40003461       0.81006071      16.81069493        0       1.00000000       0.00000680      -0.00001331       0.00000734      -0.00000904       0.00002197       0.00003487
H        1.40307629       4.05034123       7.77138050        0       1.00000000      -0.00000043       0.00000619      -0.00001354      -0.00003155      -0.00003607       0.00002109
19
Lattice="5.612310241546866 0.0 0.0 0.0 4.860403243099165 0.0 0.0 0.0 24.582432123328676" Properties=species:S:1:pos:R:3:tags:I:1:masses:R:1:momenta:R:3:forces:R:3 KEmax=24.559391461069055 iter=77651 volume=670.5618179858607 ns_energy=-12.522441155382229 last_walked_iter_clone=77625 energy=-12.522441157317747 stress="0.024002232722361547 3.551813103550225e-07 -2.443582911652598e-07 3.551813103550225e-07 0.024130019305949876 -1.6837732312713147e-07 -2.443582911652598e-07 -1.6837732312713147e-07 0.012807895271799787" pbc="T T F"
H        1.40307756       0.81006721      10.00000000        3       1.00000000       0.00000000       0.00000000       0.00000000       0.00000000       0.00000000       0.00000000
H        4.20923268       0.81006721      10.00000000        3       1.00000000       0.00000000       0.00000000       0.00000000       0.00000000       0.00000000       0.00000000
H        0.00000000       3.24026883      10.00000000        3       1.00000000       0.00000000       0.00000000       0.00000000       0.00000000       0.00000000       0.00000000
H        2.80615512       3.24026883      10.00000000        3       1.00000000       0.00000000       0.00000000       0.00000000       0.00000000       0.00000000       0.00000000
H        0.00000000       1.62013441      12.29121606        2       1.00000000       0.00000000       0.00000000       0.00000000       0.00000000       0.00000000       0.00000000
H        2.80615512       1.62013441      12.29121606        2       1.00000000       0.00000000       0.00000000       0.00000000       0.00000000       0.00000000       0.00000000
H        1.40307756       4.05033604      12.29121606        2       1.00000000       0.00000000       0.00000000       0.00000000       0.00000000       0.00000000       0.00000000
H        4.20923268       4.05033604      12.29121606        2       1.00000000       0.00000000       0.00000000       0.00000000       0.00000000       0.00000000       0.00000000
H        0.00000000       0.00000000      14.58243212        1       1.00000000       0.00000000       0.00000000       0.00000000       0.00000000       0.00000000       0.00000000
H        2.80615512       0.00000000      14.58243212        1       1.00000000       0.00000000       0.00000000       0.00000000       0.00000000       0.00000000       0.00000000
H        1.40307756       2.43020162      14.58243212        1       1.00000000       0.00000000       0.00000000       0.00000000       0.00000000       0.00000000       0.00000000
H        4.20923268       2.43020162      14.58243212        1       1.00000000       0.00000000       0.00000000       0.00000000       0.00000000       0.00000000       0.00000000
H       -0.00001170       1.62013466       7.77136165        0       1.00000000       0.00000036       0.00000392      -0.00001435      -0.00005343       0.00002245      -0.00001367
H        2.80616839       3.24027035      16.81072260        0       1.00000000       0.00001942       0.00000037      -0.00000316       0.00001556       0.00000102      -0.00000376
H        4.20923916       4.05032832       7.77137430        0       1.00000000       0.00000535      -0.00002940       0.00000762       0.00003122       0.00000051       0.00001221
H        4.21226356       0.81007909      16.81070149        0       1.00000000      -0.00001656       0.00000614       0.00000592      -0.00001470      -0.00001667       0.00002259
H        2.80614915       1.62013886       7.77137080        0       1.00000000      -0.00000028       0.00001512       0.00001208       0.00001861       0.00000081      -0.00002257
H        1.40004095       0.81007597      16.81072512        0       1.00000000       0.00000347      -0.00001312       0.00001173      -0.00000904       0.00002197       0.00003487
H        1.40307168       4.05034786       7.77135980        0       1.00000000      -0.00000382       0.00002708       0.00000955      -0.00003155      -0.00003607       0.00002109
19
Lattice="5.612310241546866 0.0 0.0 0.0 4.860403243099165 0.0 0.0 0.0 24.582432123328676" Properties=species:S:1:pos:R:3:tags:I:1:masses:R:1:momenta:R:3:forces:R:3 KEmax=24.559391461069055 iter=77651 volume=670.5618179858607 ns_energy=-12.522441155421019 last_walked_iter_clone=77610 energy=-12.522441157317747 stress="0.024002232722361547 3.551813103550225e-07 -2.443582911652598e-07 3.551813103550225e-07 0.024130019305949876 -1.6837732312713147e-07 -2.443582911652598e-07 -1.6837732312713147e-07 0.012807895271799787" pbc="T T F"
H        1.40307756       0.81006721      10.00000000        3       1.00000000       0.00000000       0.00000000       0.00000000       0.00000000       0.00000000       0.00000000
H        4.20923268       0.81006721      10.00000000        3       1.00000000       0.00000000       0.00000000       0.00000000       0.00000000       0.00000000       0.00000000
H        0.00000000       3.24026883      10.00000000        3       1.00000000       0.00000000       0.00000000       0.00000000       0.00000000       0.00000000       0.00000000
H        2.80615512       3.24026883      10.00000000        3       1.00000000       0.00000000       0.00000000       0.00000000       0.00000000       0.00000000       0.00000000
H        0.00000000       1.62013441      12.29121606        2       1.00000000       0.00000000       0.00000000       0.00000000       0.00000000       0.00000000       0.00000000
H        2.80615512       1.62013441      12.29121606        2       1.00000000       0.00000000       0.00000000       0.00000000       0.00000000       0.00000000       0.00000000
H        1.40307756       4.05033604      12.29121606        2       1.00000000       0.00000000       0.00000000       0.00000000       0.00000000       0.00000000       0.00000000
H        4.20923268       4.05033604      12.29121606        2       1.00000000       0.00000000       0.00000000       0.00000000       0.00000000       0.00000000       0.00000000
H        0.00000000       0.00000000      14.58243212        1       1.00000000       0.00000000       0.00000000       0.00000000       0.00000000       0.00000000       0.00000000
H        2.80615512       0.00000000      14.58243212        1       1.00000000       0.00000000       0.00000000       0.00000000       0.00000000       0.00000000       0.00000000
H        1.40307756       2.43020162      14.58243212        1       1.00000000       0.00000000       0.00000000       0.00000000       0.00000000       0.00000000       0.00000000
H        4.20923268       2.43020162      14.58243212        1       1.00000000       0.00000000       0.00000000       0.00000000       0.00000000       0.00000000       0.00000000
H        5.61231999       1.62013686       7.77135595        0       1.00000000       0.00001046       0.00001170       0.00002305      -0.00005343       0.00002245      -0.00001367
H        2.80617609       3.24028632      16.81070659        0       1.00000000       0.00001607      -0.00001361       0.00001317       0.00001556       0.00000102      -0.00000376
H        4.20925326       4.05032949       7.77135881        0       1.00000000      -0.00000581      -0.00001457      -0.00000799       0.00003122       0.00000051       0.00001221
H        4.21227723       0.81008169      16.81071357        0       1.00000000       0.00001501      -0.00000652      -0.00000349      -0.00001470      -0.00001667       0.00002259
H        2.80615771       1.62014424       7.77135573        0       1.00000000       0.00001087       0.00001431      -0.00000864       0.00001861       0.00000081      -0.00002257
H        1.40003159       0.81007030      16.81071700        0       1.00000000      -0.00002024       0.00002953      -0.00000452      -0.00000904       0.00002197       0.00003487
H        1.40310078       4.05033556       7.77137009        0       1.00000000       0.00000226      -0.00000429      -0.00000371      -0.00003155      -0.00003607       0.00002109
19
Lattice="5.612310241546866 0.0 0.0 0.0 4.860403243099165 0.0 0.0 0.0 24.582432123328676" Properties=species:S:1:pos:R:3:tags:I:1:masses:R:1:momenta:R:3:forces:R:3 KEmax=24.559391461069055 iter=77651 volume=670.5618179858607 ns_energy=-12.522441155370924 last_walked_iter_clone=77526 energy=-12.522441157317747 stress="0.024002232722361547 3.551813103550225e-07 -2.443582911652598e-07 3.551813103550225e-07 0.024130019305949876 -1.6837732312713147e-07 -2.443582911652598e-07 -1.6837732312713147e-07 0.012807895271799787" pbc="T T F"
H        1.40307756       0.81006721      10.00000000        3       1.00000000       0.00000000       0.00000000       0.00000000       0.00000000       0.00000000       0.00000000
H        4.20923268       0.81006721      10.00000000        3       1.00000000       0.00000000       0.00000000       0.00000000       0.00000000       0.00000000       0.00000000
H        0.00000000       3.24026883      10.00000000        3       1.00000000       0.00000000       0.00000000       0.00000000       0.00000000       0.00000000       0.00000000
H        2.80615512       3.24026883      10.00000000        3       1.00000000       0.00000000       0.00000000       0.00000000       0.00000000       0.00000000       0.00000000
H        0.00000000       1.62013441      12.29121606        2       1.00000000       0.00000000       0.00000000       0.00000000       0.00000000       0.00000000       0.00000000
H        2.80615512       1.62013441      12.29121606        2       1.00000000       0.00000000       0.00000000       0.00000000       0.00000000       0.00000000       0.00000000
H        1.40307756       4.05033604      12.29121606        2       1.00000000       0.00000000       0.00000000       0.00000000       0.00000000       0.00000000       0.00000000
H        4.20923268       4.05033604      12.29121606        2       1.00000000       0.00000000       0.00000000       0.00000000       0.00000000       0.00000000       0.00000000
H        0.00000000       0.00000000      14.58243212        1       1.00000000       0.00000000       0.00000000       0.00000000       0.00000000       0.00000000       0.00000000
H        2.80615512       0.00000000      14.58243212        1       1.00000000       0.00000000       0.00000000       0.00000000       0.00000000       0.00000000       0.00000000
H        1.40307756       2.43020162      14.58243212        1       1.00000000       0.00000000       0.00000000       0.00000000       0.00000000       0.00000000       0.00000000
H        4.20923268       2.43020162      14.58243212        1       1.00000000       0.00000000       0.00000000       0.00000000       0.00000000       0.00000000       0.00000000
H        5.61230317       1.62014278       7.77137270        0       1.00000000      -0.00000545       0.00001528       0.00000079      -0.00005343       0.00002245      -0.00001367
H        2.80616617       3.24028222      16.81069715        0       1.00000000       0.00002590       0.00000484       0.00000937       0.00001556       0.00000102      -0.00000376
H        4.20924017       4.05035336       7.77136186        0       1.00000000       0.00001579      -0.00000276       0.00001471       0.00003122       0.00000051       0.00001221
H        4.21226611       0.81008780      16.81071865        0       1.00000000      -0.00000778       0.00001095       0.00002380      -0.00001470      -0.00001667       0.00002259
H        2.80615325       1.62014795       7.77136637        0       1.00000000       0.00001827       0.00000526      -0.00001063       0.00001861       0.00000081      -0.00002257
H        1.40003921       0.81007488      16.81072848        0       1.00000000       0.00003001       0.00000791      -0.00001517      -0.00000904       0.00002197       0.00003487
H        1.40307987       4.05034245       7.77137081        0       1.00000000      -0.00000394       0.00002173       0.00002324      -0.00003155      -0.00003607       0.00002109
19
Lattice="5.612310241546866 0.0 0.0 0.0 4.860403243099165 0.0 0.0 0.0 24.582432123328676" Properties=species:S:1:pos:R:3:tags:I:1:masses:R:1:momenta:R:3:forces:R:3 KEmax=24.559391461069055 iter=77651 volume=670.5618179858607 ns_energy=-12.52244115554198 last_walked_iter_clone=77561 energy=-12.522441157317747 stress="0.024002232722361547 3.551813103550225e-07 -2.443582911652598e-07 3.551813103550225e-07 0.024130019305949876 -1.6837732312713147e-07 -2.443582911652598e-07 -1.6837732312713147e-07 0.012807895271799787" pbc="T T F"
H        1.40307756       0.81006721      10.00000000        3       1.00000000       0.00000000       0.00000000       0.00000000       0.00000000       0.00000000       0.00000000
H        4.20923268       0.81006721      10.00000000        3       1.00000000       0.00000000       0.00000000       0.00000000       0.00000000       0.00000000       0.00000000
H        0.00000000       3.24026883      10.00000000        3       1.00000000       0.00000000       0.00000000       0.00000000       0.00000000       0.00000000       0.00000000
H        2.80615512       3.24026883      10.00000000        3       1.00000000       0.00000000       0.00000000       0.00000000       0.00000000       0.00000000       0.00000000
H        0.00000000       1.62013441      12.29121606        2       1.00000000       0.00000000       0.00000000       0.00000000       0.00000000       0.00000000       0.00000000
H        2.80615512       1.62013441      12.29121606        2       1.00000000       0.00000000       0.00000000       0.00000000       0.00000000       0.00000000       0.00000000
H        1.40307756       4.05033604      12.29121606        2       1.00000000       0.00000000       0.00000000       0.00000000       0.00000000       0.00000000       0.00000000
H        4.20923268       4.05033604      12.29121606        2       1.00000000       0.00000000       0.00000000       0.00000000       0.00000000       0.00000000       0.00000000
H        0.00000000       0.00000000      14.58243212        1       1.00000000       0.00000000       0.00000000       0.00000000       0.00000000       0.00000000       0.00000000
H        2.80615512       0.00000000      14.58243212        1       1.00000000       0.00000000       0.00000000       0.00000000       0.00000000       0.00000000       0.00000000
H        1.40307756       2.43020162      14.58243212        1       1.00000000       0.00000000       0.00000000       0.00000000       0.00000000       0.00000000       0.00000000
H        4.20923268       2.43020162      14.58243212        1       1.00000000       0.00000000       0.00000000       0.00000000       0.00000000       0.00000000       0.00000000
H       -0.00001507       1.62012352       7.77135079        0       1.00000000      -0.00000763       0.00003262       0.00001012      -0.00005343       0.00002245      -0.00001367
H        2.80613897       3.24026447      16.81070256        0       1.00000000      -0.00002454      -0.00002487      -0.00001659       0.00001556       0.00000102      -0.00000376
H        4.20923482       4.05033591       7.77137056        0       1.00000000      -0.00000467      -0.00000451      -0.00000688       0.00003122       0.00000051       0.00001221
H        4.21226645       0.81007562      16.81070557        0       1.00000000      -0.00000318       0.00001514      -0.00000173      -0.00001470      -0.00001667       0.00002259
H        2.80614125       1.62012990       7.77136807        0       1.00000000      -0.00000857      -0.00001259       0.00000819       0.00001861       0.00000081      -0.00002257
H        1.40003403       0.81006762      16.81070502        0       1.00000000      -0.00000502       0.00000768      -0.00000638      -0.00000904       0.00002197       0.00003487
H        1.40306190       4.05033502       7.77135800        0       1.00000000       0.00001983      -0.00000683       0.00001356      -0.00003155      -0.00003607       0.00002109
19
Lattice="5.612310241546866 0.0 0.0 0.0 4.860403243099165 0.0 0.0 0.0 24.582432123328676" Properties=species:S:1:pos:R:3:tags:I:1:masses:R:1:momenta:R:3:forces:R:3 KEmax=24.559391461069055 iter=77651 volume=670.5618179858607 ns_energy=-12.52244115535395 last_walked_iter_clone=77527 energy=-12.522441157317747 stress="0.024002232722361547 3.551813103550225e-07 -2.443582911652598e-07 3.551813103550225e-07 0.024130019305949876 -1.6837732312713147e-07 -2.443582911652598e-07 -1.6837732312713147e-07 0.012807895271799787" pbc="T T F"
H        1.40307756       0.81006721      10.00000000        3       1.00000000       0.00000000       0.00000000       0.00000000       0.00000000       0.00000000       0.00000000
H        4.20923268       0.81006721      10.00000000        3       1.00000000       0.00000000       0.00000000       0.00000000       0.00000000       0.00000000       0.00000000
H        0.00000000       3.24026883      10.00000000        3       1.00000000       0.00000000       0.00000000       0.00000000       0.00000000       0.00000000       0.00000000
H        2.80615512       3.24026883      10.00000000        3       1.00000000       0.00000000       0.00000000       0.00000000       0.00000000       0.00000000       0.00000000
H        0.00000000       1.62013441      12.29121606        2       1.00000000       0.00000000       0.00000000       0.00000000       0.00000000       0.00000000       0.00000000
H        2.80615512       1.62013441      12.29121606        2       1.00000000       0.00000000       0.00000000       0.00000000       0.00000000       0.00000000       0.00000000
H        1.40307756       4.05033604      12.29121606        2       1.00000000       0.00000000       0.00000000       0.00000000       0.00000000       0.00000000       0.00000000
H        4.20923268       4.05033604      12.29121606        2       1.00000000       0.00000000       0.00000000       0.00000000       0.00000000       0.00000000       0.00000000
H        0.00000000       0.00000000      14.58243212        1       1.00000000       0.00000000       0.00000000       0.00000000       0.00000000       0.00000000       0.00000000
H        2.80615512       0.00000000      14.58243212        1       1.00000000       0.00000000       0.00000000       0.00000000       0.00000000       0.00000000       0.00000000
H        1.40307756       2.43020162      14.58243212        1       1.00000000       0.00000000       0.00000000       0.00000000       0.00000000       0.00000000       0.00000000
H        4.20923268       2.43020162      14.58243212        1       1.00000000       0.00000000       0.00000000       0.00000000       0.00000000       0.00000000       0.00000000
H       -0.00000292       1.62014708       7.77135994        0       1.00000000      -0.00002174       0.00001902       0.00000950      -0.00005343       0.00002245      -0.00001367
H        2.80614471       3.24026047      16.81070950        0       1.00000000      -0.00000582       0.00000048       0.00000424       0.00001556       0.00000102      -0.00000376
H        4.20922454       4.05033796       7.77136643        0       1.00000000       0.00001056       0.00001481       0.00001651       0.00003122       0.00000051       0.00001221
H        4.21226842       0.81006783      16.81070138        0       1.00000000      -0.00001702       0.00003552      -0.00001033      -0.00001470      -0.00001667       0.00002259
H        2.80613275       1.62012923       7.77135244        0       1.00000000      -0.00000905       0.00000804      -0.00000943       0.00001861       0.00000081      -0.00002257
H        1.40002589       0.81007237      16.81071460        0       1.00000000      -0.00000604       0.00000594       0.00001131      -0.00000904       0.00002197       0.00003487
H        1.40307774       4.05033312       7.77136311        0       1.00000000      -0.00001420      -0.00000612      -0.00001335      -0.00003155      -0.00003607       0.00002109
19
Lattice="5.612310241546866 0.0 0.0 0.0 4.860403243099165 0.0 0.0 0.0 24.582432123328676" Properties=species:S:1:pos:R:3:tags:I:1:masses:R:1:momenta:R:3:forces:R:3 KEmax=24.559391461069055 iter=77651 volume=670.5618179858607 ns_energy=-12.522441155630966 last_walked_iter_clone=77646 energy=-12.522441157317747 stress="0.024002232722361547 3.551813103550225e-07 -2.443582911652598e-07 3.551813103550225e-07 0.024130019305949876 -1.6837732312713147e-07 -2.443582911652598e-07 -1.6837732312713147e-07 0.012807895271799787" pbc="T T F"
H        1.40307756       0.81006721      10.00000000        3       1.00000000       0.00000000       0.00000000       0.00000000       0.00000000       0.00000000       0.00000000
H        4.20923268       0.81006721      10.00000000        3       1.00000000       0.00000000       0.00000000       0.00000000       0.00000000       0.00000000       0.00000000
H        0.00000000       3.24026883      10.00000000        3       1.00000000       0.00000000       0.00000000       0.00000000       0.00000000       0.00000000       0.00000000
H        2.80615512       3.24026883      10.00000000        3       1.00000000       0.00000000       0.00000000       0.00000000       0.00000000       0.00000000       0.00000000
H        0.00000000       1.62013441      12.29121606        2       1.00000000       0.00000000       0.00000000       0.00000000       0.00000000       0.00000000       0.00000000
H        2.80615512       1.62013441      12.29121606        2       1.00000000       0.00000000       0.00000000       0.00000000       0.00000000       0.00000000       0.00000000
H        1.40307756       4.05033604      12.29121606        2       1.00000000       0.00000000       0.00000000       0.00000000       0.00000000       0.00000000       0.00000000
H        4.20923268       4.05033604      12.29121606        2       1.00000000       0.00000000       0.00000000       0.00000000       0.00000000       0.00000000       0.00000000
H        0.00000000       0.00000000      14.58243212        1       1.00000000       0.00000000       0.00000000       0.00000000       0.00000000       0.00000000       0.00000000
H        2.80615512       0.00000000      14.58243212        1       1.00000000       0.00000000       0.00000000       0.00000000       0.00000000       0.00000000       0.00000000
H        1.40307756       2.43020162      14.58243212        1       1.00000000       0.00000000       0.00000000       0.00000000       0.00000000       0.00000000       0.00000000
H        4.20923268       2.43020162      14.58243212        1       1.00000000       0.00000000       0.00000000       0.00000000       0.00000000       0.00000000       0.00000000
H        5.61229840       1.62012244       7.77135381        0       1.00000000      -0.00002240      -0.00000251       0.00000431      -0.00005343       0.00002245      -0.00001367
H        2.80616471       3.24026752      16.81068848        0       1.00000000      -0.00001030      -0.00001356      -0.00000058       0.00001556       0.00000102      -0.00000376
H        4.20922484       4.05034066       7.77135868        0       1.00000000       0.00001820       0.00000730       0.00000817       0.00003122       0.00000051       0.00001221
H        4.21226429       0.81009037      16.81071561        0       1.00000000       0.00000455      -0.00001712       0.00000787      -0.00001470      -0.00001667       0.00002259
H        2.80614471       1.62012829       7.77137022        0       1.00000000       0.00000725      -0.00000999       0.00001608       0.00001861       0.00000081      -0.00002257
H        1.40003048       0.81006468      16.81071060        0       1.00000000       0.00001614      -0.00000307       0.00000633      -0.00000904       0.00002197       0.00003487
H        1.40307335       4.05033117       7.77135736        0       1.00000000      -0.00000482      -0.00000178       0.00003062      -0.00003155      -0.00003607       0.00002109
19
Lattice="5.612310241546866 0.0 0.0 0.0 4.860403243099165 0.0 0.0 0.0 24.582432123328676" Properties=species:S:1:pos:R:3:tags:I:1:masses:R:1:momenta:R:3:forces:R:3 KEmax=24.559391461069055 iter=77651 volume=670.5618179858607 ns_energy=-12.522441155408533 last_walked_iter_clone=77380 energy=-12.522441157317747 stress="0.024002232722361547 3.551813103550225e-07 -2.443582911652598e-07 3.551813103550225e-07 0.024130019305949876 -1.6837732312713147e-07 -2.443582911652598e-07 -1.6837732312713147e-07 0.012807895271799787" pbc="T T F"
H        1.40307756       0.81006721      10.00000000        3       1.00000000       0.00000000       0.00000000       0.00000000       0.00000000       0.00000000       0.00000000
H        4.20923268       0.81006721      10.00000000        3       1.00000000       0.00000000       0.00000000       0.00000000       0.00000000       0.00000000       0.00000000
H        0.00000000       3.24026883      10.00000000        3       1.00000000       0.00000000       0.00000000       0.00000000       0.00000000       0.00000000       0.00000000
H        2.80615512       3.24026883      10.00000000        3       1.00000000       0.00000000       0.00000000       0.00000000       0.00000000       0.00000000       0.00000000
H        0.00000000       1.62013441      12.29121606        2       1.00000000       0.00000000       0.00000000       0.00000000       0.00000000       0.00000000       0.00000000
H        2.80615512       1.62013441      12.29121606        2       1.00000000       0.00000000       0.00000000       0.00000000       0.00000000       0.00000000       0.00000000
H        1.40307756       4.05033604      12.29121606        2       1.00000000       0.00000000       0.00000000       0.00000000       0.00000000       0.00000000       0.00000000
H        4.20923268       4.05033604      12.29121606        2       1.00000000       0.00000000       0.00000000       0.00000000       0.00000000       0.00000000       0.00000000