19
Lattice="5.612310241546866 0.0 0.0 0.0 4.860403243099165 0.0 0.0 0.0 24.582432123328676" Properties=species:S:1:pos:R:3:tags:I:1:masses:R:1:momenta:R:3 KEmax=24.559391461069055 iter=99 volume=670.5618179858607 ns_energy=260.1370272848526 ns_P=0.0 config_n_global=99 ns_KE=8.701520769722281 pbc="T T F"
H        1.40307756       0.81006721      10.00000000        3       1.00000000       0.00000000       0.00000000       0.00000000
H        4.20923268       0.81006721      10.00000000        3       1.00000000       0.00000000       0.00000000       0.00000000
H        0.00000000       3.24026883      10.00000000        3       1.00000000       0.00000000       0.00000000       0.00000000
H        2.80615512       3.24026883      10.00000000        3       1.00000000       0.00000000       0.00000000       0.00000000
H        0.00000000       1.62013441      12.29121606        2       1.00000000       0.00000000       0.00000000       0.00000000
H        2.80615512       1.62013441      12.29121606        2       1.00000000       0.00000000       0.00000000       0.00000000
H        1.40307756       4.05033604      12.29121606        2       1.00000000       0.00000000       0.00000000       0.00000000
H        4.20923268       4.05033604      12.29121606        2       1.00000000       0.00000000       0.00000000       0.00000000
H        0.00000000       0.00000000      14.58243212        1       1.00000000       0.00000000       0.00000000       0.00000000
H        2.80615512       0.00000000      14.58243212        1       1.00000000       0.00000000       0.00000000       0.00000000
H        1.40307756       2.43020162      14.58243212        1       1.00000000       0.00000000       0.00000000       0.00000000
H        4.20923268       2.43020162      14.58243212        1       1.00000000       0.00000000       0.00000000       0.00000000
H        1.50140436       3.60786693       6.39529927        0       1.00000000       0.04847269      -0.47185285       0.56666693
H        3.49348724       2.22557201      19.08628741        0       1.00000000       1.21546865       1.72140529      -0.93186104
H        2.06930488       2.54976766       4.70101748        0       1.00000000      -0.74734508      -0.07752950       0.51941425
H        4.92333139       1.86126185      18.99756278        0       1.00000000      -0.18997635      -1.19799141       0.67502385
H        5.42277633       2.30574549       4.87351667        0       1.00000000      -1.36983501       0.42157295      -0.16197506
H        4.52953080       3.35458527      20.05509178        0       1.00000000       1.84036566       0.15106182       1.10814258
H        2.87553137       4.13529644       4.56312767        0       1.00000000       0.68577951      -0.73123693       1.03128943
19
Lattice="5.612310241546866 0.0 0.0 0.0 4.860403243099165 0.0 0.0 0.0 24.582432123328676" Properties=species:S:1:pos:R:3:tags:I:1:masses:R:1:momenta:R:3 KEmax=24.559391461069055 iter=199 volume=670.5618179858607 ns_energy=19.85199091189592 last_walked_iter_clone=152 ns_P=0.0 config_n_global=199 ns_KE=22.93608535953476 pbc="T T F"
H        1.40307756       0.81006721      10.00000000        3       1.00000000       0.00000000       0.00000000       0.00000000
H        4.20923268       0.81006721      10.00000000        3       1.00000000       0.00000000       0.00000000       0.00000000
H        0.00000000       3.24026883      10.00000000        3       1.00000000       0.00000000       0.00000000       0.00000000
H        2.80615512       3.24026883      10.00000000        3       1.00000000       0.00000000       0.00000000       0.00000000
H        0.00000000       1.62013441      12.29121606        2       1.00000000       0.00000000       0.00000000       0.00000000
H        2.80615512       1.62013441      12.29121606        2       1.00000000       0.00000000       0.00000000       0.00000000
H        1.40307756       4.05033604      12.29121606        2       1.00000000       0.00000000       0.00000000       0.00000000
H        4.20923268       4.05033604      12.29121606        2       1.00000000       0.00000000       0.00000000       0.00000000
H        0.00000000       0.00000000      14.58243212        1       1.00000000       0.00000000       0.00000000       0.00000000
H        2.80615512       0.00000000      14.58243212        1       1.00000000       0.00000000       0.00000000       0.00000000
H        1.40307756       2.43020162      14.58243212        1       1.00000000       0.00000000       0.00000000       0.00000000
H        4.20923268       2.43020162      14.58243212        1       1.00000000       0.00000000       0.00000000       0.00000000
H        3.43827217       3.06762817       5.21516807        0       1.00000000       0.41892886       2.54902992       0.55776917
H        2.21330777       0.32067463      21.95972624        0       1.00000000       1.69527707       0.08469545      -0.68333901
H        5.52642878       4.81159401       7.56467542        0       1.00000000      -1.25506399       0.96878751       0.24585008
H        0.69887185       2.81346914      19.87370811        0       1.00000000       1.70035188       1.42962774      -0.56642738
H        3.13934863       0.89807206       5.28158474        0       1.00000000       3.50479545      -1.35228815       0.97383633
H        1.09369387       3.60527419      22.46139864        0       1.00000000       0.28178211      -3.23031691      -0.78566332
H        2.27713842       4.40451272       2.11118682        0       1.00000000      -0.11665259       0.37290746      -1.16831317
19
Lattice="5.612310241546866 0.0 0.0 0.0 4.860403243099165 0.0 0.0 0.0 24.582432123328676" Properties=species:S:1:pos:R:3:tags:I:1:masses:R:1:momenta:R:3 KEmax=24.559391461069055 iter=299 volume=670.5618179858607 ns_energy=14.612239137966535 last_walked_iter_clone=264 ns_P=0.0 config_n_global=299 ns_KE=21.827177554969825 pbc="T T F"
H        1.40307756       0.81006721      10.00000000        3       1.00000000       0.00000000       0.00000000       0.00000000
H        4.20923268       0.81006721      10.00000000        3       1.00000000       0.00000000       0.00000000       0.00000000
H        0.00000000       3.24026883      10.00000000        3       1.00000000       0.00000000       0.00000000       0.00000000
H        2.80615512       3.24026883      10.00000000        3       1.00000000       0.00000000       0.00000000       0.00000000
H        0.00000000       1.62013441      12.29121606        2       1.00000000       0.00000000       0.00000000       0.00000000
H        2.80615512       1.62013441      12.29121606        2       1.00000000       0.00000000       0.00000000       0.00000000
H        1.40307756       4.05033604      12.29121606        2       1.00000000       0.00000000       0.00000000       0.00000000
H        4.20923268       4.05033604      12.29121606        2       1.00000000       0.00000000       0.00000000       0.00000000
H        0.00000000       0.00000000      14.58243212        1       1.00000000       0.00000000       0.00000000       0.00000000
H        2.80615512       0.00000000      14.58243212        1       1.00000000       0.00000000       0.00000000       0.00000000
H        1.40307756       2.43020162      14.58243212        1       1.00000000       0.00000000       0.00000000       0.00000000
H        4.20923268       2.43020162      14.58243212        1       1.00000000       0.00000000       0.00000000       0.00000000
H        1.35089586       2.60790748       6.07660099        0       1.00000000       0.98294771      -0.18878517      -0.33567704
H        5.54284741       1.43854585      24.41658185        0       1.00000000      -1.64018731      -0.45040319       1.20744012
H        1.76996712       1.38572287       3.30108725        0       1.00000000       2.25777743      -1.15608537      -1.61398149
H        1.73219938       4.13251543      16.32846131        0       1.00000000      -0.51386461      -0.57446452       0.19232003
H        2.66561569       3.82690320       3.70647378        0       1.00000000      -1.82750901      -0.23439356      -1.75030195
H        0.49487893       0.96719604      17.19235919        0       1.00000000      -2.24074972       1.42849970      -2.43213226
H        0.08175325       3.57140899       3.98960069        0       1.00000000       0.50471207      -2.44056753      -1.69486000
19
Lattice="5.612310241546866 0.0 0.0 0.0 4.860403243099165 0.0 0.0 0.0 24.582432123328676" Properties=species:S:1:pos:R:3:tags:I:1:masses:R:1:momenta:R:3 KEmax=24.559391461069055 iter=399 volume=670.5618179858607 ns_energy=13.09362251829505 last_walked_iter_clone=310 ns_P=0.0 config_n_global=399 ns_KE=19.658376887430496 pbc="T T F"
H        1.40307756       0.81006721      10.00000000        3       1.00000000       0.00000000       0.00000000       0.00000000
H        4.20923268       0.81006721      10.00000000        3       1.00000000       0.00000000       0.00000000       0.00000000
H        0.00000000       3.24026883      10.00000000        3       1.00000000       0.00000000       0.00000000       0.00000000
H        2.80615512       3.24026883      10.00000000        3       1.00000000       0.00000000       0.00000000       0.00000000
H        0.00000000       1.62013441      12.29121606        2       1.00000000       0.00000000       0.00000000       0.00000000
H        2.80615512       1.62013441      12.29121606        2       1.00000000       0.00000000       0.00000000       0.00000000
H        1.40307756       4.05033604      12.29121606        2       1.00000000       0.00000000       0.00000000       0.00000000
H        4.20923268       4.05033604      12.29121606        2       1.00000000       0.00000000       0.00000000       0.00000000
H        0.00000000       0.00000000      14.58243212        1       1.00000000       0.00000000       0.00000000       0.00000000
H        2.80615512       0.00000000      14.58243212        1       1.00000000       0.00000000       0.00000000       0.00000000
H        1.40307756       2.43020162      14.58243212        1       1.00000000       0.00000000       0.00000000       0.00000000
H        4.20923268       2.43020162      14.58243212        1       1.00000000       0.00000000       0.00000000       0.00000000
H        1.69357445       1.21771644       0.50430298        0       1.00000000      -2.18546417      -1.30388124       0.28954930
H        0.35853549       2.85453207      20.96748689        0       1.00000000       1.74001024      -0.98322540       0.07809321
H        1.33456107       3.25533956       0.13329295        0       1.00000000      -1.82310127      -0.34399957       0.14659051
H        3.57544946       1.56044786      17.35944402        0       1.00000000       0.29008741       0.03071523       0.60407636
H        5.69998455       4.35344321       3.70198673        0       1.00000000       3.12583301      -2.58801792      -0.54416433
H        0.26263886       0.44947729      18.70367969        0       1.00000000      -1.15827283       1.06939936      -0.80981502
H        4.26282693       1.56583714       1.36459203        0       1.00000000      -1.08043511       0.45608231      -1.88717185
19
Lattice="5.612310241546866 0.0 0.0 0.0 4.860403243099165 0.0 0.0 0.0 24.582432123328676" Properties=species:S:1:pos:R:3:tags:I:1:masses:R:1:momenta:R:3 KEmax=24.559391461069055 iter=499 volume=670.5618179858607 ns_energy=11.555828901997206 last_walked_iter_clone=412 ns_P=0.0 config_n_global=499 ns_KE=16.03056687542605 pbc="T T F"
H        1.40307756       0.81006721      10.00000000        3       1.00000000       0.00000000       0.00000000       0.00000000
H        4.20923268       0.81006721      10.00000000        3       1.00000000       0.00000000       0.00000000       0.00000000
H        0.00000000       3.24026883      10.00000000        3       1.00000000       0.00000000       0.00000000       0.00000000
H        2.80615512       3.24026883      10.00000000        3       1.00000000       0.00000000       0.00000000       0.00000000
H        0.00000000       1.62013441      12.29121606        2       1.00000000       0.00000000       0.00000000       0.00000000
H        2.80615512       1.62013441      12.29121606        2       1.00000000       0.00000000       0.00000000       0.00000000
H        1.40307756       4.05033604      12.29121606        2       1.00000000       0.00000000       0.00000000       0.00000000
H        4.20923268       4.05033604      12.29121606        2       1.00000000       0.00000000       0.00000000       0.00000000
H        0.00000000       0.00000000      14.58243212        1       1.00000000       0.00000000       0.00000000       0.00000000
H        2.80615512       0.00000000      14.58243212        1       1.00000000       0.00000000       0.00000000       0.00000000
H        1.40307756       2.43020162      14.58243212        1       1.00000000       0.00000000       0.00000000       0.00000000
H        4.20923268       2.43020162      14.58243212        1       1.00000000       0.00000000       0.00000000       0.00000000
H        3.79133122       2.68282132       2.15526297        0       1.00000000      -0.82000085       0.77260062      -1.06827213
H        5.55343631       4.02796795      18.48992425        0       1.00000000      -0.24978560      -0.03443431      -0.53610891
H        1.71290571       1.24329757       2.00688876        0       1.00000000       1.61175941       1.76373592      -0.88120937
H        3.11107452       4.25071734      17.02482895        0       1.00000000       1.62468701      -1.32883495      -0.57084723
H        1.11738200       0.28291333       3.90676119        0       1.00000000       0.00726970      -0.81327526       0.17769163
H        5.57142140       2.88181667      16.11337761        0       1.00000000      -2.58520825      -2.45948494       2.00277127
H        5.03171512       2.55536670       6.83261851        0       1.00000000      -0.75855022      -0.04552395       0.26326643
19
Lattice="5.612310241546866 0.0 0.0 0.0 4.860403243099165 0.0 0.0 0.0 24.582432123328676" Properties=species:S:1:pos:R:3:tags:I:1:masses:R:1:momenta:R:3 KEmax=24.559391461069055 iter=599 volume=670.5618179858607 ns_energy=10.212688320151793 last_walked_iter_clone=561 ns_P=0.0 config_n_global=599 ns_KE=18.7009688382244 pbc="T T F"
H        1.40307756       0.81006721      10.00000000        3       1.00000000       0.00000000       0.00000000       0.00000000
H        4.20923268       0.81006721      10.00000000        3       1.00000000       0.00000000       0.00000000       0.00000000
H        0.00000000       3.24026883      10.00000000        3       1.00000000       0.00000000       0.00000000       0.00000000
H        2.80615512       3.24026883      10.00000000        3       1.00000000       0.00000000       0.00000000       0.00000000
H        0.00000000       1.62013441      12.29121606        2       1.00000000       0.00000000       0.00000000       0.00000000
H        2.80615512       1.62013441      12.29121606        2       1.00000000       0.00000000       0.00000000       0.00000000
H        1.40307756       4.05033604      12.29121606        2       1.00000000       0.00000000       0.00000000       0.00000000
H        4.20923268       4.05033604      12.29121606        2       1.00000000       0.00000000       0.00000000       0.00000000
H        0.00000000       0.00000000      14.58243212        1       1.00000000       0.00000000       0.00000000       0.00000000
H        2.80615512       0.00000000      14.58243212        1       1.00000000       0.00000000       0.00000000       0.00000000
H        1.40307756       2.43020162      14.58243212        1       1.00000000       0.00000000       0.00000000       0.00000000
H        4.20923268       2.43020162      14.58243212        1       1.00000000       0.00000000       0.00000000       0.00000000
H        1.60306767       2.64255747       6.70558360        0       1.00000000      -0.52819882       2.70270162       1.05036544
H        3.42850296       3.93908769      22.97321838        0       1.00000000      -0.89126483       0.47498537       0.16070664
H        1.04307320       4.08666422       4.67003952        0       1.00000000      -0.41063570       2.26320693      -1.16387126
H        1.31955053       1.75391495      17.28335848        0       1.00000000      -0.14110429      -1.89738212      -0.23453528
H        4.11723843       0.31392471       6.64748370        0       1.00000000      -0.26154807       0.19637645       2.25045811
H        5.61993684       2.88076403      23.66840060        0       1.00000000      -0.30244661      -0.25595540       3.01918182
H        3.35418315       0.76274102       0.73994995        0       1.00000000       1.31913166       1.06311962      -0.18622345
19
Lattice="5.612310241546866 0.0 0.0 0.0 4.860403243099165 0.0 0.0 0.0 24.582432123328676" Properties=species:S:1:pos:R:3:tags:I:1:masses:R:1:momenta:R:3 KEmax=24.559391461069055 iter=699 volume=670.5618179858607 ns_energy=8.887056044703433 last_walked_iter_clone=571 ns_P=0.0 config_n_global=699 ns_KE=16.971461690447484 pbc="T T F"
H        1.40307756       0.81006721      10.00000000        3       1.00000000       0.00000000       0.00000000       0.00000000
H        4.20923268       0.81006721      10.00000000        3       1.00000000       0.00000000       0.00000000       0.00000000
H        0.00000000       3.24026883      10.00000000        3       1.00000000       0.00000000       0.00000000       0.00000000
H        2.80615512       3.24026883      10.00000000        3       1.00000000       0.00000000       0.00000000       0.00000000
H        0.00000000       1.62013441      12.29121606        2       1.00000000       0.00000000       0.00000000       0.00000000
H        2.80615512       1.62013441      12.29121606        2       1.00000000       0.00000000       0.00000000       0.00000000
H        1.40307756       4.05033604      12.29121606        2       1.00000000       0.00000000       0.00000000       0.00000000
H        4.20923268       4.05033604      12.29121606        2       1.00000000       0.00000000       0.00000000       0.00000000
H        0.00000000       0.00000000      14.58243212        1       1.00000000       0.00000000       0.00000000       0.00000000
H        2.80615512       0.00000000      14.58243212        1       1.00000000       0.00000000       0.00000000       0.00000000
H        1.40307756       2.43020162      14.58243212        1       1.00000000       0.00000000       0.00000000       0.00000000
H        4.20923268       2.43020162      14.58243212        1       1.00000000       0.00000000       0.00000000       0.00000000
H        2.98091111       1.19104065       3.56636276        0       1.00000000      -0.68825991       0.41624236       0.34750435
H        3.54320710       2.99764017      18.88464394        0       1.00000000      -1.22731505      -0.54985469      -3.02518181
H        2.28250167       1.25627542       5.92159774        0       1.00000000       0.57574103      -0.58076468       0.12274214
H        1.32358394       1.34323532      16.86433772        0       1.00000000       1.00979251       1.79068036      -0.23527097
H        1.79165545       4.50843904       0.03743607        0       1.00000000      -0.03424191      -0.99313369       2.28242401
H        4.59332227       4.84956142      18.05820690        0       1.00000000      -0.62802169       1.17110274      -0.22102674
H        5.81942087       3.46326487       4.11146278        0       1.00000000       2.64361799      -0.02109526      -1.49952780
19
Lattice="5.612310241546866 0.0 0.0 0.0 4.860403243099165 0.0 0.0 0.0 24.582432123328676" Properties=species:S:1:pos:R:3:tags:I:1:masses:R:1:momenta:R:3 KEmax=24.559391461069055 iter=799 volume=670.5618179858607 ns_energy=7.830363033286975 last_walked_iter_clone=737 ns_P=0.0 config_n_global=799 ns_KE=15.682042082192664 pbc="T T F"
H        1.40307756       0.81006721      10.00000000        3       1.00000000       0.00000000       0.00000000       0.00000000
H        4.20923268       0.81006721      10.00000000        3       1.00000000       0.00000000       0.00000000       0.00000000
H        0.00000000       3.24026883      10.00000000        3       1.00000000       0.00000000       0.00000000       0.00000000
H        2.80615512       3.24026883      10.00000000        3       1.00000000       0.00000000       0.00000000       0.00000000
H        0.00000000       1.62013441      12.29121606        2       1.00000000       0.00000000       0.00000000       0.00000000
H        2.80615512       1.62013441      12.29121606        2       1.00000000       0.00000000       0.00000000       0.00000000
H        1.40307756       4.05033604      12.29121606        2       1.00000000       0.00000000       0.00000000       0.00000000
H        4.20923268       4.05033604      12.29121606        2       1.00000000       0.00000000       0.00000000       0.00000000
H        0.00000000       0.00000000      14.58243212        1       1.00000000       0.00000000       0.00000000       0.00000000
H        2.80615512       0.00000000      14.58243212        1       1.00000000       0.00000000       0.00000000       0.00000000
H        1.40307756       2.43020162      14.58243212        1       1.00000000       0.00000000       0.00000000       0.00000000
H        4.20923268       2.43020162      14.58243212        1       1.00000000       0.00000000       0.00000000       0.00000000
H        0.17989782       1.15463898       0.20801935        0       1.00000000       0.06098139       0.24848991      -0.80937087
H        1.27698273       2.60727839      17.05385074        0       1.00000000       1.38458841      -0.95400895       1.76118896
H        1.51236407       2.35639416       6.13521945        0       1.00000000       2.74720961      -0.16469005       0.92089623
H        2.40649451       4.04323815      22.99135813        0       1.00000000      -1.04739858      -1.01267649      -0.42271962
H        1.11943881       0.49832015       3.49356303        0       1.00000000      -1.20867564      -0.93713722       0.42156607
H        4.84532491       4.06908200      17.01954495        0       1.00000000      -0.85525379      -2.07149834      -1.13164060
H        3.28141483       0.08365329       3.96490994        0       1.00000000       1.73382105       0.10798196       1.46735761
19
Lattice="5.612310241546866 0.0 0.0 0.0 4.860403243099165 0.0 0.0 0.0 24.582432123328676" Properties=species:S:1:pos:R:3:tags:I:1:masses:R:1:momenta:R:3 KEmax=24.559391461069055 iter=899 volume=670.5618179858607 ns_energy=6.680291318664737 last_walked_iter_clone=774 ns_P=0.0 config_n_global=899 ns_KE=13.204025733138414 pbc="T T F"
H        1.40307756       0.81006721      10.00000000        3       1.00000000       0.00000000       0.00000000       0.00000000
H        4.20923268       0.81006721      10.00000000        3       1.00000000       0.00000000       0.00000000       0.00000000
H        0.00000000       3.24026883      10.00000000        3       1.00000000       0.00000000       0.00000000       0.00000000
H        2.80615512       3.24026883      10.00000000        3       1.00000000       0.00000000       0.00000000       0.00000000
H        0.00000000       1.62013441      12.29121606        2       1.00000000       0.00000000       0.00000000       0.00000000
H        2.80615512       1.62013441      12.29121606        2       1.00000000       0.00000000       0.00000000       0.00000000
H        1.40307756       4.05033604      12.29121606        2       1.00000000       0.00000000       0.00000000       0.00000000
H        4.20923268       4.05033604      12.29121606        2       1.00000000       0.00000000       0.00000000       0.00000000
H        0.00000000       0.00000000      14.58243212        1       1.00000000       0.00000000       0.00000000       0.00000000
H        2.80615512       0.00000000      14.58243212        1       1.00000000       0.00000000       0.00000000       0.00000000
H        1.40307756       2.43020162      14.58243212        1       1.00000000       0.00000000       0.00000000       0.00000000
H        4.20923268       2.43020162      14.58243212        1       1.00000000       0.00000000       0.00000000       0.00000000
H        2.01595678       0.76300146       5.28803447        0       1.00000000      -0.92382724       0.08076111      -1.53342782
H        3.55059500       1.77365678      22.95181717        0       1.00000000       1.29707580       0.30731474       0.09302946
H        4.53596202       3.37673985       0.57075147        0       1.00000000      -0.50471525       0.19416725       1.18725409
H        0.89418328       2.23945273      19.97637004        0       1.00000000       0.77546293       0.16204490      -1.81418690
H        2.82811379       4.61203375       0.19996980        0       1.00000000       0.07322624      -1.61834473       0.48322067
H        2.44162216       4.64945462      19.99104459        0       1.00000000       0.37213434      -1.29814111       1.67353299
H        4.65877140       4.33888029       5.88845661        0       1.00000000      -0.85277040       1.30262101       2.42569024
19
Lattice="5.612310241546866 0.0 0.0 0.0 4.860403243099165 0.0 0.0 0.0 24.582432123328676" Properties=species:S:1:pos:R:3:tags:I:1:masses:R:1:momenta:R:3 KEmax=24.559391461069055 iter=999 volume=670.5618179858607 ns_energy=5.697709671504142 last_walked_iter_clone=931 ns_P=0.0 config_n_global=999 ns_KE=11.614993026488417 pbc="T T F"
H        1.40307756       0.81006721      10.00000000        3       1.00000000       0.00000000       0.00000000       0.00000000
H        4.20923268       0.81006721      10.00000000        3       1.00000000       0.00000000       0.00000000       0.00000000
H        0.00000000       3.24026883      10.00000000        3       1.00000000       0.00000000       0.00000000       0.00000000
H        2.80615512       3.24026883      10.00000000        3       1.00000000       0.00000000       0.00000000       0.00000000
H        0.00000000       1.62013441      12.29121606        2       1.00000000       0.00000000       0.00000000       0.00000000
H        2.80615512       1.62013441      12.29121606        2       1.00000000       0.00000000       0.00000000       0.00000000
H        1.40307756       4.05033604      12.29121606        2       1.00000000       0.00000000       0.00000000       0.00000000
H        4.20923268       4.05033604      12.29121606        2       1.00000000       0.00000000       0.00000000       0.00000000
H        0.00000000       0.00000000      14.58243212        1       1.00000000       0.00000000       0.00000000       0.00000000
H        2.80615512       0.00000000      14.58243212        1       1.00000000       0.00000000       0.00000000       0.00000000
H        1.40307756       2.43020162      14.58243212        1       1.00000000       0.00000000       0.00000000       0.00000000
H        4.20923268       2.43020162      14.58243212        1       1.00000000       0.00000000       0.00000000       0.00000000
H        0.71570124       0.25036098       7.09967378        0       1.00000000       0.69193607      -0.43264074       0.38234466
H        3.73862287       3.52217823      22.47096148        0       1.00000000      -1.66852558       1.57060715      -1.34782696
H        2.35276003       1.03484283       4.49044925        0       1.00000000      -0.18225487      -2.27096434      -0.56855454
H        2.60759565       3.01051850      18.77714326        0       1.00000000      -1.13938561      -0.98233855       0.16249969
H        2.29564243       3.96357177       3.16201030        0       1.00000000       0.66533465       0.73980504       2.02445410
H        3.70682048       0.61213759      23.64979425        0       1.00000000       1.17552797       0.50380958      -0.87401570
H        4.29100311       4.57339274       7.34677375        0       1.00000000       0.00452578      -0.23736936       0.05219080
19
Lattice="5.612310241546866 0.0 0.0 0.0 4.860403243099165 0.0 0.0 0.0 24.582432123328676" Properties=species:S:1:pos:R:3:tags:I:1:masses:R:1:momenta:R:3 KEmax=24.559391461069055 iter=1099 volume=670.5618179858607 ns_energy=4.747596335889117 last_walked_iter_clone=1025 ns_P=0.0 config_n_global=1099 ns_KE=12.739890508343855 pbc="T T F"
H        1.40307756       0.81006721      10.00000000        3       1.00000000       0.00000000       0.00000000       0.00000000
H        4.20923268       0.81006721      10.00000000        3       1.00000000       0.00000000       0.00000000       0.00000000
H        0.00000000       3.24026883      10.00000000        3       1.00000000       0.00000000       0.00000000       0.00000000
H        2.80615512       3.24026883      10.00000000        3       1.00000000       0.00000000       0.00000000       0.00000000
H        0.00000000       1.62013441      12.29121606        2       1.00000000       0.00000000       0.00000000       0.00000000
H        2.80615512       1.62013441      12.29121606        2       1.00000000       0.00000000       0.00000000       0.00000000
H        1.40307756       4.05033604      12.29121606        2       1.00000000       0.00000000       0.00000000       0.00000000
H        4.20923268       4.05033604      12.29121606        2       1.00000000       0.00000000       0.00000000       0.00000000
H        0.00000000       0.00000000      14.58243212        1       1.00000000       0.00000000       0.00000000       0.00000000
H        2.80615512       0.00000000      14.58243212        1       1.00000000       0.00000000       0.00000000       0.00000000
H        1.40307756       2.43020162      14.58243212        1       1.00000000       0.00000000       0.00000000       0.00000000