19
Lattice="5.612310241546866 0.0 0.0 0.0 4.860403243099165 0.0 0.0 0.0 24.582432123328676" Properties=species:S:1:pos:R:3:tags:I:1:masses:R:1:momenta:R:3:forces:R:3 KEmax=24.559391461069055 iter=119999 volume=670.5618179858607 ns_energy=-12.52244115930328 last_walked_iter_clone=119551 energy=-12.522433764722106 stress="0.02400300576985593 -6.383723524605793e-09 1.4341176257013213e-08 -6.383723524605793e-09 0.02413313570132966 -6.541771201928724e-08 1.4341176257013213e-08 -6.541771201928724e-08 0.012808366936213872" pbc="T T F"
H        1.40307756       0.81006721      10.00000000        3       1.00000000       0.00000000       0.00000000       0.00000000       0.00000000       0.00000000       0.00000000
H        4.20923268       0.81006721      10.00000000        3       1.00000000       0.00000000       0.00000000       0.00000000       0.00000000       0.00000000       0.00000000
H        0.00000000       3.24026883      10.00000000        3       1.00000000       0.00000000       0.00000000       0.00000000       0.00000000       0.00000000       0.00000000
H        2.80615512       3.24026883      10.00000000        3       1.00000000       0.00000000       0.00000000       0.00000000       0.00000000       0.00000000       0.00000000
H        0.00000000       1.62013441      12.29121606        2       1.00000000       0.00000000       0.00000000       0.00000000       0.00000000       0.00000000       0.00000000
H        2.80615512       1.62013441      12.29121606        2       1.00000000       0.00000000       0.00000000       0.00000000       0.00000000       0.00000000       0.00000000
H        1.40307756       4.05033604      12.29121606        2       1.00000000       0.00000000       0.00000000       0.00000000       0.00000000       0.00000000       0.00000000
H        4.20923268       4.05033604      12.29121606        2       1.00000000       0.00000000       0.00000000       0.00000000       0.00000000       0.00000000       0.00000000
H        0.00000000       0.00000000      14.58243212        1       1.00000000       0.00000000       0.00000000       0.00000000       0.00000000       0.00000000       0.00000000
H        2.80615512       0.00000000      14.58243212        1       1.00000000       0.00000000       0.00000000       0.00000000       0.00000000       0.00000000       0.00000000
H        1.40307756       2.43020162      14.58243212        1       1.00000000       0.00000000       0.00000000       0.00000000       0.00000000       0.00000000       0.00000000
H        4.20923268       2.43020162      14.58243212        1       1.00000000       0.00000000       0.00000000       0.00000000       0.00000000       0.00000000       0.00000000
H        5.61231072       1.62013407       7.77136763        0       1.00000000       0.00000036       0.00000041       0.00000014       0.00225077      -0.00429065      -0.00000334
H        2.80615445       3.24027766      16.81070478        0       1.00000000      -0.00000097       0.00000001      -0.00000003      -0.00000031      -0.00038607      -0.00000171
H        4.20923282       4.05033533       7.77136768        0       1.00000000      -0.00000038      -0.00000026      -0.00000001      -0.00035969       0.00429448       0.00000220
H        4.21227459       0.81007745      16.81071105        0       1.00000000       0.00000167      -0.00000086       0.00000003      -0.00097491       0.00019555       0.00000363
H        2.80615533       1.62013396       7.77136744        0       1.00000000       0.00000097      -0.00000004      -0.00000061      -0.00225281      -0.00432779      -0.00000214
H        1.40003563       0.81007728      16.81071086        0       1.00000000      -0.00000055      -0.00000125       0.00000031       0.00097450       0.00019424       0.00000317
H        1.40307724       4.05033601       7.77136652        0       1.00000000      -0.00000027       0.00000003      -0.00000172       0.00036260       0.00432041       0.00000105
19
Lattice="5.612310241546866 0.0 0.0 0.0 4.860403243099165 0.0 0.0 0.0 24.582432123328676" Properties=species:S:1:pos:R:3:tags:I:1:masses:R:1:momenta:R:3:forces:R:3 KEmax=24.559391461069055 iter=119999 volume=670.5618179858607 ns_energy=-12.52244115930389 last_walked_iter_clone=119623 energy=-12.522433764722106 stress="0.02400300576985593 -6.383723524605793e-09 1.4341176257013213e-08 -6.383723524605793e-09 0.02413313570132966 -6.541771201928724e-08 1.4341176257013213e-08 -6.541771201928724e-08 0.012808366936213872" pbc="T T F"
H        1.40307756       0.81006721      10.00000000        3       1.00000000       0.00000000       0.00000000       0.00000000       0.00000000       0.00000000       0.00000000
H        4.20923268       0.81006721      10.00000000        3       1.00000000       0.00000000       0.00000000       0.00000000       0.00000000       0.00000000       0.00000000
H        0.00000000       3.24026883      10.00000000        3       1.00000000       0.00000000       0.00000000       0.00000000       0.00000000       0.00000000       0.00000000
H        2.80615512       3.24026883      10.00000000        3       1.00000000       0.00000000       0.00000000       0.00000000       0.00000000       0.00000000       0.00000000
H        0.00000000       1.62013441      12.29121606        2       1.00000000       0.00000000       0.00000000       0.00000000       0.00000000       0.00000000       0.00000000
H        2.80615512       1.62013441      12.29121606        2       1.00000000       0.00000000       0.00000000       0.00000000       0.00000000       0.00000000       0.00000000
H        1.40307756       4.05033604      12.29121606        2       1.00000000       0.00000000       0.00000000       0.00000000       0.00000000       0.00000000       0.00000000
H        4.20923268       4.05033604      12.29121606        2       1.00000000       0.00000000       0.00000000       0.00000000       0.00000000       0.00000000       0.00000000
H        0.00000000       0.00000000      14.58243212        1       1.00000000       0.00000000       0.00000000       0.00000000       0.00000000       0.00000000       0.00000000
H        2.80615512       0.00000000      14.58243212        1       1.00000000       0.00000000       0.00000000       0.00000000       0.00000000       0.00000000       0.00000000
H        1.40307756       2.43020162      14.58243212        1       1.00000000       0.00000000       0.00000000       0.00000000       0.00000000       0.00000000       0.00000000
H        4.20923268       2.43020162      14.58243212        1       1.00000000       0.00000000       0.00000000       0.00000000       0.00000000       0.00000000       0.00000000
H        5.61231078       1.62013456       7.77136722        0       1.00000000       0.00000040      -0.00000001      -0.00000043       0.00225077      -0.00429065      -0.00000334
H        2.80615495       3.24027667      16.81070457        0       1.00000000      -0.00000013       0.00000086       0.00000071      -0.00000031      -0.00038607      -0.00000171
H        4.20923317       4.05033610       7.77136737        0       1.00000000      -0.00000079      -0.00000018       0.00000039      -0.00035969       0.00429448       0.00000220
H        4.21227472       0.81007789      16.81071075        0       1.00000000       0.00000098       0.00000053       0.00000020      -0.00097491       0.00019555       0.00000363
H        2.80615562       1.62013467       7.77136706        0       1.00000000      -0.00000043      -0.00000010       0.00000068      -0.00225281      -0.00432779      -0.00000214
H        1.40003465       0.81007615      16.81071155        0       1.00000000      -0.00000005       0.00000098      -0.00000121       0.00097450       0.00019424       0.00000317
H        1.40307811       4.05033634       7.77136655        0       1.00000000      -0.00000010      -0.00000189      -0.00000006       0.00036260       0.00432041       0.00000105
19
Lattice="5.612310241546866 0.0 0.0 0.0 4.860403243099165 0.0 0.0 0.0 24.582432123328676" Properties=species:S:1:pos:R:3:tags:I:1:masses:R:1:momenta:R:3:forces:R:3 KEmax=24.559391461069055 iter=119999 volume=670.5618179858607 ns_energy=-12.52244115930326 last_walked_iter_clone=119617 energy=-12.522433764722106 stress="0.02400300576985593 -6.383723524605793e-09 1.4341176257013213e-08 -6.383723524605793e-09 0.02413313570132966 -6.541771201928724e-08 1.4341176257013213e-08 -6.541771201928724e-08 0.012808366936213872" pbc="T T F"
H        1.40307756       0.81006721      10.00000000        3       1.00000000       0.00000000       0.00000000       0.00000000       0.00000000       0.00000000       0.00000000
H        4.20923268       0.81006721      10.00000000        3       1.00000000       0.00000000       0.00000000       0.00000000       0.00000000       0.00000000       0.00000000
H        0.00000000       3.24026883      10.00000000        3       1.00000000       0.00000000       0.00000000       0.00000000       0.00000000       0.00000000       0.00000000
H        2.80615512       3.24026883      10.00000000        3       1.00000000       0.00000000       0.00000000       0.00000000       0.00000000       0.00000000       0.00000000
H        0.00000000       1.62013441      12.29121606        2       1.00000000       0.00000000       0.00000000       0.00000000       0.00000000       0.00000000       0.00000000
H        2.80615512       1.62013441      12.29121606        2       1.00000000       0.00000000       0.00000000       0.00000000       0.00000000       0.00000000       0.00000000
H        1.40307756       4.05033604      12.29121606        2       1.00000000       0.00000000       0.00000000       0.00000000       0.00000000       0.00000000       0.00000000
H        4.20923268       4.05033604      12.29121606        2       1.00000000       0.00000000       0.00000000       0.00000000       0.00000000       0.00000000       0.00000000
H        0.00000000       0.00000000      14.58243212        1       1.00000000       0.00000000       0.00000000       0.00000000       0.00000000       0.00000000       0.00000000
H        2.80615512       0.00000000      14.58243212        1       1.00000000       0.00000000       0.00000000       0.00000000       0.00000000       0.00000000       0.00000000
H        1.40307756       2.43020162      14.58243212        1       1.00000000       0.00000000       0.00000000       0.00000000       0.00000000       0.00000000       0.00000000
H        4.20923268       2.43020162      14.58243212        1       1.00000000       0.00000000       0.00000000       0.00000000       0.00000000       0.00000000       0.00000000
H        0.00000079       1.62013418       7.77136735        0       1.00000000      -0.00000145       0.00000087      -0.00000168       0.00225077      -0.00429065      -0.00000334
H        2.80615483       3.24027677      16.81070482        0       1.00000000       0.00000021       0.00000029      -0.00000067      -0.00000031      -0.00038607      -0.00000171
H        4.20923360       4.05033562       7.77136728        0       1.00000000      -0.00000106      -0.00000020       0.00000030      -0.00035969       0.00429448       0.00000220
H        4.21227492       0.81007770      16.81071078        0       1.00000000      -0.00000015      -0.00000027       0.00000050      -0.00097491       0.00019555       0.00000363
H        2.80615606       1.62013454       7.77136712        0       1.00000000      -0.00000063      -0.00000016       0.00000022      -0.00225281      -0.00432779      -0.00000214
H        1.40003490       0.81007585      16.81071124        0       1.00000000      -0.00000007       0.00000009       0.00000109       0.00097450       0.00019424       0.00000317
H        1.40307831       4.05033600       7.77136661        0       1.00000000      -0.00000072      -0.00000083      -0.00000065       0.00036260       0.00432041       0.00000105
19
Lattice="5.612310241546866 0.0 0.0 0.0 4.860403243099165 0.0 0.0 0.0 24.582432123328676" Properties=species:S:1:pos:R:3:tags:I:1:masses:R:1:momenta:R:3:forces:R:3 KEmax=24.559391461069055 iter=119999 volume=670.5618179858607 ns_energy=-12.522441159303265 last_walked_iter_clone=119474 energy=-12.522433764722106 stress="0.02400300576985593 -6.383723524605793e-09 1.4341176257013213e-08 -6.383723524605793e-09 0.02413313570132966 -6.541771201928724e-08 1.4341176257013213e-08 -6.541771201928724e-08 0.012808366936213872" pbc="T T F"
H        1.40307756       0.81006721      10.00000000        3       1.00000000       0.00000000       0.00000000       0.00000000       0.00000000       0.00000000       0.00000000
H        4.20923268       0.81006721      10.00000000        3       1.00000000       0.00000000       0.00000000       0.00000000       0.00000000       0.00000000       0.00000000
H        0.00000000       3.24026883      10.00000000        3       1.00000000       0.00000000       0.00000000       0.00000000       0.00000000       0.00000000       0.00000000
H        2.80615512       3.24026883      10.00000000        3       1.00000000       0.00000000       0.00000000       0.00000000       0.00000000       0.00000000       0.00000000
H        0.00000000       1.62013441      12.29121606        2       1.00000000       0.00000000       0.00000000       0.00000000       0.00000000       0.00000000       0.00000000
H        2.80615512       1.62013441      12.29121606        2       1.00000000       0.00000000       0.00000000       0.00000000       0.00000000       0.00000000       0.00000000
H        1.40307756       4.05033604      12.29121606        2       1.00000000       0.00000000       0.00000000       0.00000000       0.00000000       0.00000000       0.00000000
H        4.20923268       4.05033604      12.29121606        2       1.00000000       0.00000000       0.00000000       0.00000000       0.00000000       0.00000000       0.00000000
H        0.00000000       0.00000000      14.58243212        1       1.00000000       0.00000000       0.00000000       0.00000000       0.00000000       0.00000000       0.00000000
H        2.80615512       0.00000000      14.58243212        1       1.00000000       0.00000000       0.00000000       0.00000000       0.00000000       0.00000000       0.00000000
H        1.40307756       2.43020162      14.58243212        1       1.00000000       0.00000000       0.00000000       0.00000000       0.00000000       0.00000000       0.00000000
H        4.20923268       2.43020162      14.58243212        1       1.00000000       0.00000000       0.00000000       0.00000000       0.00000000       0.00000000       0.00000000
H        5.61231045       1.62013389       7.77136760        0       1.00000000       0.00000005      -0.00000003      -0.00000025       0.00225077      -0.00429065      -0.00000334
H        2.80615558       3.24027674      16.81070525        0       1.00000000       0.00000033      -0.00000047      -0.00000090      -0.00000031      -0.00038607      -0.00000171
H        4.20923250       4.05033590       7.77136731        0       1.00000000      -0.00000103      -0.00000106       0.00000042      -0.00035969       0.00429448       0.00000220
H        4.21227396       0.81007752      16.81071103        0       1.00000000      -0.00000055      -0.00000076      -0.00000179      -0.00097491       0.00019555       0.00000363
H        2.80615488       1.62013371       7.77136707        0       1.00000000       0.00000071      -0.00000078      -0.00000038      -0.00225281      -0.00432779      -0.00000214
H        1.40003505       0.81007626      16.81071129        0       1.00000000      -0.00000155      -0.00000036      -0.00000083       0.00097450       0.00019424       0.00000317
H        1.40307767       4.05033548       7.77136712        0       1.00000000       0.00000026      -0.00000034       0.00000062       0.00036260       0.00432041       0.00000105
19
Lattice="5.612310241546866 0.0 0.0 0.0 4.860403243099165 0.0 0.0 0.0 24.582432123328676" Properties=species:S:1:pos:R:3:tags:I:1:masses:R:1:momenta:R:3:forces:R:3 KEmax=24.559391461069055 iter=119999 volume=670.5618179858607 ns_energy=-12.522441159303233 last_walked_iter_clone=119131 energy=-12.522433764722106 stress="0.02400300576985593 -6.383723524605793e-09 1.4341176257013213e-08 -6.383723524605793e-09 0.02413313570132966 -6.541771201928724e-08 1.4341176257013213e-08 -6.541771201928724e-08 0.012808366936213872" pbc="T T F"
H        1.40307756       0.81006721      10.00000000        3       1.00000000       0.00000000       0.00000000       0.00000000       0.00000000       0.00000000       0.00000000
H        4.20923268       0.81006721      10.00000000        3       1.00000000       0.00000000       0.00000000       0.00000000       0.00000000       0.00000000       0.00000000
H        0.00000000       3.24026883      10.00000000        3       1.00000000       0.00000000       0.00000000       0.00000000       0.00000000       0.00000000       0.00000000
H        2.80615512       3.24026883      10.00000000        3       1.00000000       0.00000000       0.00000000       0.00000000       0.00000000       0.00000000       0.00000000
H        0.00000000       1.62013441      12.29121606        2       1.00000000       0.00000000       0.00000000       0.00000000       0.00000000       0.00000000       0.00000000
H        2.80615512       1.62013441      12.29121606        2       1.00000000       0.00000000       0.00000000       0.00000000       0.00000000       0.00000000       0.00000000
H        1.40307756       4.05033604      12.29121606        2       1.00000000       0.00000000       0.00000000       0.00000000       0.00000000       0.00000000       0.00000000
H        4.20923268       4.05033604      12.29121606        2       1.00000000       0.00000000       0.00000000       0.00000000       0.00000000       0.00000000       0.00000000
H        0.00000000       0.00000000      14.58243212        1       1.00000000       0.00000000       0.00000000       0.00000000       0.00000000       0.00000000       0.00000000
H        2.80615512       0.00000000      14.58243212        1       1.00000000       0.00000000       0.00000000       0.00000000       0.00000000       0.00000000       0.00000000
H        1.40307756       2.43020162      14.58243212        1       1.00000000       0.00000000       0.00000000       0.00000000       0.00000000       0.00000000       0.00000000
H        4.20923268       2.43020162      14.58243212        1       1.00000000       0.00000000       0.00000000       0.00000000       0.00000000       0.00000000       0.00000000
H        5.61231090       1.62013478       7.77136772        0       1.00000000       0.00000174      -0.00000011      -0.00000024       0.00225077      -0.00429065      -0.00000334
H        2.80615402       3.24027749      16.81070493        0       1.00000000      -0.00000024       0.00000054       0.00000045      -0.00000031      -0.00038607      -0.00000171
H        4.20923307       4.05033656       7.77136712        0       1.00000000      -0.00000035       0.00000014      -0.00000073      -0.00035969       0.00429448       0.00000220
H        4.21227379       0.81007784      16.81071089        0       1.00000000       0.00000108      -0.00000054      -0.00000048      -0.00097491       0.00019555       0.00000363
H        2.80615584       1.62013450       7.77136675        0       1.00000000      -0.00000085       0.00000061      -0.00000025      -0.00225281      -0.00432779      -0.00000214
H        1.40003459       0.81007743      16.81071147        0       1.00000000       0.00000051      -0.00000083       0.00000059       0.00097450       0.00019424       0.00000317
H        1.40307852       4.05033599       7.77136650        0       1.00000000       0.00000055       0.00000151       0.00000023       0.00036260       0.00432041       0.00000105
19
Lattice="5.612310241546866 0.0 0.0 0.0 4.860403243099165 0.0 0.0 0.0 24.582432123328676" Properties=species:S:1:pos:R:3:tags:I:1:masses:R:1:momenta:R:3:forces:R:3 KEmax=24.559391461069055 iter=119999 volume=670.5618179858607 ns_energy=-12.522441159303673 last_walked_iter_clone=119565 energy=-12.522433764722106 stress="0.02400300576985593 -6.383723524605793e-09 1.4341176257013213e-08 -6.383723524605793e-09 0.02413313570132966 -6.541771201928724e-08 1.4341176257013213e-08 -6.541771201928724e-08 0.012808366936213872" pbc="T T F"
H        1.40307756       0.81006721      10.00000000        3       1.00000000       0.00000000       0.00000000       0.00000000       0.00000000       0.00000000       0.00000000
H        4.20923268       0.81006721      10.00000000        3       1.00000000       0.00000000       0.00000000       0.00000000       0.00000000       0.00000000       0.00000000
H        0.00000000       3.24026883      10.00000000        3       1.00000000       0.00000000       0.00000000       0.00000000       0.00000000       0.00000000       0.00000000
H        2.80615512       3.24026883      10.00000000        3       1.00000000       0.00000000       0.00000000       0.00000000       0.00000000       0.00000000       0.00000000
H        0.00000000       1.62013441      12.29121606        2       1.00000000       0.00000000       0.00000000       0.00000000       0.00000000       0.00000000       0.00000000
H        2.80615512       1.62013441      12.29121606        2       1.00000000       0.00000000       0.00000000       0.00000000       0.00000000       0.00000000       0.00000000
H        1.40307756       4.05033604      12.29121606        2       1.00000000       0.00000000       0.00000000       0.00000000       0.00000000       0.00000000       0.00000000
H        4.20923268       4.05033604      12.29121606        2       1.00000000       0.00000000       0.00000000       0.00000000       0.00000000       0.00000000       0.00000000
H        0.00000000       0.00000000      14.58243212        1       1.00000000       0.00000000       0.00000000       0.00000000       0.00000000       0.00000000       0.00000000
H        2.80615512       0.00000000      14.58243212        1       1.00000000       0.00000000       0.00000000       0.00000000       0.00000000       0.00000000       0.00000000
H        1.40307756       2.43020162      14.58243212        1       1.00000000       0.00000000       0.00000000       0.00000000       0.00000000       0.00000000       0.00000000
H        4.20923268       2.43020162      14.58243212        1       1.00000000       0.00000000       0.00000000       0.00000000       0.00000000       0.00000000       0.00000000
H        0.00000042       1.62013375       7.77136729        0       1.00000000      -0.00000098      -0.00000024      -0.00000001       0.00225077      -0.00429065      -0.00000334
H        2.80615458       3.24027675      16.81070474        0       1.00000000      -0.00000064      -0.00000107       0.00000091      -0.00000031      -0.00038607      -0.00000171
H        4.20923317       4.05033487       7.77136704        0       1.00000000      -0.00000105      -0.00000044      -0.00000139      -0.00035969       0.00429448       0.00000220
H        4.21227514       0.81007593      16.81071146        0       1.00000000       0.00000038       0.00000070       0.00000009      -0.00097491       0.00019555       0.00000363
H        2.80615573       1.62013411       7.77136683        0       1.00000000      -0.00000075      -0.00000077      -0.00000021      -0.00225281      -0.00432779      -0.00000214
H        1.40003529       0.81007696      16.81071132        0       1.00000000       0.00000057       0.00000023      -0.00000063       0.00097450       0.00019424       0.00000317
H        1.40307811       4.05033574       7.77136716        0       1.00000000       0.00000021       0.00000069       0.00000142       0.00036260       0.00432041       0.00000105
19
Lattice="5.612310241546866 0.0 0.0 0.0 4.860403243099165 0.0 0.0 0.0 24.582432123328676" Properties=species:S:1:pos:R:3:tags:I:1:masses:R:1:momenta:R:3:forces:R:3 KEmax=24.559391461069055 iter=119999 volume=670.5618179858607 ns_energy=-12.52244115930323 last_walked_iter_clone=118860 energy=-12.522433764722106 stress="0.02400300576985593 -6.383723524605793e-09 1.4341176257013213e-08 -6.383723524605793e-09 0.02413313570132966 -6.541771201928724e-08 1.4341176257013213e-08 -6.541771201928724e-08 0.012808366936213872" pbc="T T F"
H        1.40307756       0.81006721      10.00000000        3       1.00000000       0.00000000       0.00000000       0.00000000       0.00000000       0.00000000       0.00000000
H        4.20923268       0.81006721      10.00000000        3       1.00000000       0.00000000       0.00000000       0.00000000       0.00000000       0.00000000       0.00000000
H        0.00000000       3.24026883      10.00000000        3       1.00000000       0.00000000       0.00000000       0.00000000       0.00000000       0.00000000       0.00000000
H        2.80615512       3.24026883      10.00000000        3       1.00000000       0.00000000       0.00000000       0.00000000       0.00000000       0.00000000       0.00000000
H        0.00000000       1.62013441      12.29121606        2       1.00000000       0.00000000       0.00000000       0.00000000       0.00000000       0.00000000       0.00000000
H        2.80615512       1.62013441      12.29121606        2       1.00000000       0.00000000       0.00000000       0.00000000       0.00000000       0.00000000       0.00000000
H        1.40307756       4.05033604      12.29121606        2       1.00000000       0.00000000       0.00000000       0.00000000       0.00000000       0.00000000       0.00000000
H        4.20923268       4.05033604      12.29121606        2       1.00000000       0.00000000       0.00000000       0.00000000       0.00000000       0.00000000       0.00000000
H        0.00000000       0.00000000      14.58243212        1       1.00000000       0.00000000       0.00000000       0.00000000       0.00000000       0.00000000       0.00000000
H        2.80615512       0.00000000      14.58243212        1       1.00000000       0.00000000       0.00000000       0.00000000       0.00000000       0.00000000       0.00000000
H        1.40307756       2.43020162      14.58243212        1       1.00000000       0.00000000       0.00000000       0.00000000       0.00000000       0.00000000       0.00000000
H        4.20923268       2.43020162      14.58243212        1       1.00000000       0.00000000       0.00000000       0.00000000       0.00000000       0.00000000       0.00000000
H        5.61231046       1.62013391       7.77136760        0       1.00000000       0.00000140      -0.00000001       0.00000042       0.00225077      -0.00429065      -0.00000334
H        2.80615513       3.24027819      16.81070492        0       1.00000000       0.00000017      -0.00000025       0.00000087      -0.00000031      -0.00038607      -0.00000171
H        4.20923238       4.05033556       7.77136758        0       1.00000000      -0.00000056      -0.00000095      -0.00000019      -0.00035969       0.00429448       0.00000220
H        4.21227463       0.81007752      16.81071106        0       1.00000000      -0.00000022      -0.00000037      -0.00000041      -0.00097491       0.00019555       0.00000363
H        2.80615476       1.62013382       7.77136715        0       1.00000000       0.00000035      -0.00000051      -0.00000017      -0.00225281      -0.00432779      -0.00000214
H        1.40003463       0.81007784      16.81071100        0       1.00000000      -0.00000096       0.00000017       0.00000047       0.00097450       0.00019424       0.00000317
H        1.40307768       4.05033584       7.77136585        0       1.00000000      -0.00000078       0.00000084      -0.00000069       0.00036260       0.00432041       0.00000105
19
Lattice="5.612310241546866 0.0 0.0 0.0 4.860403243099165 0.0 0.0 0.0 24.582432123328676" Properties=species:S:1:pos:R:3:tags:I:1:masses:R:1:momenta:R:3:forces:R:3 KEmax=24.559391461069055 iter=119999 volume=670.5618179858607 ns_energy=-12.522441159303584 last_walked_iter_clone=119812 energy=-12.522433764722106 stress="0.02400300576985593 -6.383723524605793e-09 1.4341176257013213e-08 -6.383723524605793e-09 0.02413313570132966 -6.541771201928724e-08 1.4341176257013213e-08 -6.541771201928724e-08 0.012808366936213872" pbc="T T F"
H        1.40307756       0.81006721      10.00000000        3       1.00000000       0.00000000       0.00000000       0.00000000       0.00000000       0.00000000       0.00000000
H        4.20923268       0.81006721      10.00000000        3       1.00000000       0.00000000       0.00000000       0.00000000       0.00000000       0.00000000       0.00000000
H        0.00000000       3.24026883      10.00000000        3       1.00000000       0.00000000       0.00000000       0.00000000       0.00000000       0.00000000       0.00000000
H        2.80615512       3.24026883      10.00000000        3       1.00000000       0.00000000       0.00000000       0.00000000       0.00000000       0.00000000       0.00000000
H        0.00000000       1.62013441      12.29121606        2       1.00000000       0.00000000       0.00000000       0.00000000       0.00000000       0.00000000       0.00000000
H        2.80615512       1.62013441      12.29121606        2       1.00000000       0.00000000       0.00000000       0.00000000       0.00000000       0.00000000       0.00000000
H        1.40307756       4.05033604      12.29121606        2       1.00000000       0.00000000       0.00000000       0.00000000       0.00000000       0.00000000       0.00000000
H        4.20923268       4.05033604      12.29121606        2       1.00000000       0.00000000       0.00000000       0.00000000       0.00000000       0.00000000       0.00000000