18
Lattice="5.612310241546866 0.0 0.0 0.0 4.860403243099165 0.0 0.0 0.0 44.58243212332868" Properties=species:S:1:pos:R:3:tags:I:1:masses:R:1:momenta:R:3:forces:R:3 KEmax=23.26679191048647 iter=87369 volume=1216.1236359717223 ns_energy=-11.6471377319979 last_walked_iter_clone=87291 energy=-11.647137732040635 stress="0.004540992207822602 -5.4716513091545615e-09 1.7349112246242088e-08 -5.4716513091545615e-09 0.004537137922606794 6.091637194806709e-09 1.7349112246242088e-08 6.091637194806709e-09 0.0023242497289803297" pbc="T T T"
H        1.40307756       0.81006721      20.00000000        3       1.00000000       0.00000000       0.00000000       0.00000000       0.00000000       0.00000000       0.00000000
H        4.20923268       0.81006721      20.00000000        3       1.00000000       0.00000000       0.00000000       0.00000000       0.00000000       0.00000000       0.00000000
H        0.00000000       3.24026883      20.00000000        3       1.00000000       0.00000000       0.00000000       0.00000000       0.00000000       0.00000000       0.00000000
H        2.80615512       3.24026883      20.00000000        3       1.00000000       0.00000000       0.00000000       0.00000000       0.00000000       0.00000000       0.00000000
H        0.00000000       1.62013441      22.29121606        2       1.00000000       0.00000000       0.00000000       0.00000000       0.00000000       0.00000000       0.00000000
H        2.80615512       1.62013441      22.29121606        2       1.00000000       0.00000000       0.00000000       0.00000000       0.00000000       0.00000000       0.00000000
H        1.40307756       4.05033604      22.29121606        2       1.00000000       0.00000000       0.00000000       0.00000000       0.00000000       0.00000000       0.00000000
H        4.20923268       4.05033604      22.29121606        2       1.00000000       0.00000000       0.00000000       0.00000000       0.00000000       0.00000000       0.00000000
H        0.00000000       0.00000000      24.58243212        1       1.00000000       0.00000000       0.00000000       0.00000000       0.00000000       0.00000000       0.00000000
H        2.80615512       0.00000000      24.58243212        1       1.00000000       0.00000000       0.00000000       0.00000000       0.00000000       0.00000000       0.00000000
H        1.40307756       2.43020162      24.58243212        1       1.00000000       0.00000000       0.00000000       0.00000000       0.00000000       0.00000000       0.00000000
H        4.20923268       2.43020162      24.58243212        1       1.00000000       0.00000000       0.00000000       0.00000000       0.00000000       0.00000000       0.00000000
H        0.00626013       3.22100066      15.56586992        0       1.00000000       0.00000140       0.00000108       0.00000184       0.00000073       0.00000189      -0.00000351
H        2.79584693       1.63473837      17.76898238        0       1.00000000       0.00000100       0.00000024       0.00000103       0.00000500      -0.00000139      -0.00000396
H        1.41338831       4.06493989      17.76898414        0       1.00000000      -0.00000222      -0.00000428      -0.00000023       0.00000603      -0.00000308       0.00000593
H        0.00379142       1.60711517      17.79330337        0       1.00000000      -0.00000220      -0.00000290      -0.00000069      -0.00000330       0.00000105      -0.00000225
H        4.20544071       4.03731839      17.79330424        0       1.00000000      -0.00000115       0.00000292       0.00000272      -0.00000409      -0.00000053       0.00000169
H        4.20297445       0.79079625      15.56586586        0       1.00000000       0.00000356       0.00000144       0.00000127       0.00000215      -0.00000252       0.00000522
18
Lattice="5.612310241546866 0.0 0.0 0.0 4.860403243099165 0.0 0.0 0.0 44.58243212332868" Properties=species:S:1:pos:R:3:tags:I:1:masses:R:1:momenta:R:3:forces:R:3 KEmax=23.26679191048647 iter=87369 volume=1216.1236359717223 ns_energy=-11.647137731997557 last_walked_iter_clone=87301 energy=-11.647137732040635 stress="0.004540992207822602 -5.4716513091545615e-09 1.7349112246242088e-08 -5.4716513091545615e-09 0.004537137922606794 6.091637194806709e-09 1.7349112246242088e-08 6.091637194806709e-09 0.0023242497289803297" pbc="T T T"
H        1.40307756       0.81006721      20.00000000        3       1.00000000       0.00000000       0.00000000       0.00000000       0.00000000       0.00000000       0.00000000
H        4.20923268       0.81006721      20.00000000        3       1.00000000       0.00000000       0.00000000       0.00000000       0.00000000       0.00000000       0.00000000
H        0.00000000       3.24026883      20.00000000        3       1.00000000       0.00000000       0.00000000       0.00000000       0.00000000       0.00000000       0.00000000
H        2.80615512       3.24026883      20.00000000        3       1.00000000       0.00000000       0.00000000       0.00000000       0.00000000       0.00000000       0.00000000
H        0.00000000       1.62013441      22.29121606        2       1.00000000       0.00000000       0.00000000       0.00000000       0.00000000       0.00000000       0.00000000
H        2.80615512       1.62013441      22.29121606        2       1.00000000       0.00000000       0.00000000       0.00000000       0.00000000       0.00000000       0.00000000
H        1.40307756       4.05033604      22.29121606        2       1.00000000       0.00000000       0.00000000       0.00000000       0.00000000       0.00000000       0.00000000
H        4.20923268       4.05033604      22.29121606        2       1.00000000       0.00000000       0.00000000       0.00000000       0.00000000       0.00000000       0.00000000
H        0.00000000       0.00000000      24.58243212        1       1.00000000       0.00000000       0.00000000       0.00000000       0.00000000       0.00000000       0.00000000
H        2.80615512       0.00000000      24.58243212        1       1.00000000       0.00000000       0.00000000       0.00000000       0.00000000       0.00000000       0.00000000
H        1.40307756       2.43020162      24.58243212        1       1.00000000       0.00000000       0.00000000       0.00000000       0.00000000       0.00000000       0.00000000
H        4.20923268       2.43020162      24.58243212        1       1.00000000       0.00000000       0.00000000       0.00000000       0.00000000       0.00000000       0.00000000
H        0.00624955       3.22099871      15.56586664        0       1.00000000       0.00000077       0.00000391       0.00000003       0.00000073       0.00000189      -0.00000351
H        2.79584530       1.63474009      17.76898346        0       1.00000000      -0.00000269       0.00000214      -0.00000083       0.00000500      -0.00000139      -0.00000396
H        1.41338806       4.06493965      17.76898264        0       1.00000000       0.00000187       0.00000344       0.00000034       0.00000603      -0.00000308       0.00000593
H        0.00379229       1.60711806      17.79330289        0       1.00000000       0.00000160      -0.00000112       0.00000154      -0.00000330       0.00000105      -0.00000225
H        4.20544109       4.03731797      17.79330537        0       1.00000000       0.00000022       0.00000091      -0.00000282      -0.00000409      -0.00000053       0.00000169
H        4.20297173       0.79079675      15.56586780        0       1.00000000      -0.00000045       0.00000323       0.00000368       0.00000215      -0.00000252       0.00000522
18
Lattice="5.612310241546866 0.0 0.0 0.0 4.860403243099165 0.0 0.0 0.0 44.58243212332868" Properties=species:S:1:pos:R:3:tags:I:1:masses:R:1:momenta:R:3:forces:R:3 KEmax=23.26679191048647 iter=87369 volume=1216.1236359717223 ns_energy=-11.64713773199802 last_walked_iter_clone=87224 energy=-11.647137732040635 stress="0.004540992207822602 -5.4716513091545615e-09 1.7349112246242088e-08 -5.4716513091545615e-09 0.004537137922606794 6.091637194806709e-09 1.7349112246242088e-08 6.091637194806709e-09 0.0023242497289803297" pbc="T T T"
H        1.40307756       0.81006721      20.00000000        3       1.00000000       0.00000000       0.00000000       0.00000000       0.00000000       0.00000000       0.00000000
H        4.20923268       0.81006721      20.00000000        3       1.00000000       0.00000000       0.00000000       0.00000000       0.00000000       0.00000000       0.00000000
H        0.00000000       3.24026883      20.00000000        3       1.00000000       0.00000000       0.00000000       0.00000000       0.00000000       0.00000000       0.00000000
H        2.80615512       3.24026883      20.00000000        3       1.00000000       0.00000000       0.00000000       0.00000000       0.00000000       0.00000000       0.00000000
H        0.00000000       1.62013441      22.29121606        2       1.00000000       0.00000000       0.00000000       0.00000000       0.00000000       0.00000000       0.00000000
H        2.80615512       1.62013441      22.29121606        2       1.00000000       0.00000000       0.00000000       0.00000000       0.00000000       0.00000000       0.00000000
H        1.40307756       4.05033604      22.29121606        2       1.00000000       0.00000000       0.00000000       0.00000000       0.00000000       0.00000000       0.00000000
H        4.20923268       4.05033604      22.29121606        2       1.00000000       0.00000000       0.00000000       0.00000000       0.00000000       0.00000000       0.00000000
H        0.00000000       0.00000000      24.58243212        1       1.00000000       0.00000000       0.00000000       0.00000000       0.00000000       0.00000000       0.00000000
H        2.80615512       0.00000000      24.58243212        1       1.00000000       0.00000000       0.00000000       0.00000000       0.00000000       0.00000000       0.00000000
H        1.40307756       2.43020162      24.58243212        1       1.00000000       0.00000000       0.00000000       0.00000000       0.00000000       0.00000000       0.00000000
H        4.20923268       2.43020162      24.58243212        1       1.00000000       0.00000000       0.00000000       0.00000000       0.00000000       0.00000000       0.00000000
H        0.00626052       3.22099712      15.56586499        0       1.00000000      -0.00000390       0.00000118       0.00000195       0.00000073       0.00000189      -0.00000351
H        2.79584446       1.63474073      17.76898182        0       1.00000000      -0.00000100      -0.00000048       0.00000071       0.00000500      -0.00000139      -0.00000396
H        1.41338930       4.06494220      17.76898306        0       1.00000000       0.00000064       0.00000392       0.00000048       0.00000603      -0.00000308       0.00000593
H        0.00379389       1.60711657      17.79330512        0       1.00000000      -0.00000187       0.00000001      -0.00000473      -0.00000330       0.00000105      -0.00000225
H        4.20544333       4.03731954      17.79330552        0       1.00000000       0.00000193       0.00000107      -0.00000074      -0.00000409      -0.00000053       0.00000169
H        4.20298343       0.79079704      15.56586705        0       1.00000000       0.00000117       0.00000337       0.00000130       0.00000215      -0.00000252       0.00000522
18
Lattice="5.612310241546866 0.0 0.0 0.0 4.860403243099165 0.0 0.0 0.0 44.58243212332868" Properties=species:S:1:pos:R:3:tags:I:1:masses:R:1:momenta:R:3:forces:R:3 KEmax=23.26679191048647 iter=87369 volume=1216.1236359717223 ns_energy=-11.647137731998502 last_walked_iter_clone=87189 energy=-11.647137732040635 stress="0.004540992207822602 -5.4716513091545615e-09 1.7349112246242088e-08 -5.4716513091545615e-09 0.004537137922606794 6.091637194806709e-09 1.7349112246242088e-08 6.091637194806709e-09 0.0023242497289803297" pbc="T T T"
H        1.40307756       0.81006721      20.00000000        3       1.00000000       0.00000000       0.00000000       0.00000000       0.00000000       0.00000000       0.00000000
H        4.20923268       0.81006721      20.00000000        3       1.00000000       0.00000000       0.00000000       0.00000000       0.00000000       0.00000000       0.00000000
H        0.00000000       3.24026883      20.00000000        3       1.00000000       0.00000000       0.00000000       0.00000000       0.00000000       0.00000000       0.00000000
H        2.80615512       3.24026883      20.00000000        3       1.00000000       0.00000000       0.00000000       0.00000000       0.00000000       0.00000000       0.00000000
H        0.00000000       1.62013441      22.29121606        2       1.00000000       0.00000000       0.00000000       0.00000000       0.00000000       0.00000000       0.00000000
H        2.80615512       1.62013441      22.29121606        2       1.00000000       0.00000000       0.00000000       0.00000000       0.00000000       0.00000000       0.00000000
H        1.40307756       4.05033604      22.29121606        2       1.00000000       0.00000000       0.00000000       0.00000000       0.00000000       0.00000000       0.00000000
H        4.20923268       4.05033604      22.29121606        2       1.00000000       0.00000000       0.00000000       0.00000000       0.00000000       0.00000000       0.00000000
H        0.00000000       0.00000000      24.58243212        1       1.00000000       0.00000000       0.00000000       0.00000000       0.00000000       0.00000000       0.00000000
H        2.80615512       0.00000000      24.58243212        1       1.00000000       0.00000000       0.00000000       0.00000000       0.00000000       0.00000000       0.00000000
H        1.40307756       2.43020162      24.58243212        1       1.00000000       0.00000000       0.00000000       0.00000000       0.00000000       0.00000000       0.00000000
H        4.20923268       2.43020162      24.58243212        1       1.00000000       0.00000000       0.00000000       0.00000000       0.00000000       0.00000000       0.00000000
H        0.00625540       3.22099886      15.56586755        0       1.00000000       0.00000004       0.00000164      -0.00000331       0.00000073       0.00000189      -0.00000351
H        2.79584434       1.63474017      17.76898474        0       1.00000000       0.00000424      -0.00000139      -0.00000170       0.00000500      -0.00000139      -0.00000396
H        1.41338898       4.06494234      17.76898252        0       1.00000000       0.00000443      -0.00000461       0.00000162       0.00000603      -0.00000308       0.00000593
H        0.00379291       1.60711802      17.79330469        0       1.00000000      -0.00000087       0.00000213      -0.00000144      -0.00000330       0.00000105      -0.00000225
H        4.20544121       4.03731767      17.79330404        0       1.00000000       0.00000164      -0.00000287       0.00000186      -0.00000409      -0.00000053       0.00000169
H        4.20297337       0.79079643      15.56586758        0       1.00000000       0.00000349      -0.00000254       0.00000283       0.00000215      -0.00000252       0.00000522
18
Lattice="5.612310241546866 0.0 0.0 0.0 4.860403243099165 0.0 0.0 0.0 44.58243212332868" Properties=species:S:1:pos:R:3:tags:I:1:masses:R:1:momenta:R:3:forces:R:3 KEmax=23.26679191048647 iter=87369 volume=1216.1236359717223 ns_energy=-11.647137731998855 last_walked_iter_clone=87235 energy=-11.647137732040635 stress="0.004540992207822602 -5.4716513091545615e-09 1.7349112246242088e-08 -5.4716513091545615e-09 0.004537137922606794 6.091637194806709e-09 1.7349112246242088e-08 6.091637194806709e-09 0.0023242497289803297" pbc="T T T"
H        1.40307756       0.81006721      20.00000000        3       1.00000000       0.00000000       0.00000000       0.00000000       0.00000000       0.00000000       0.00000000
H        4.20923268       0.81006721      20.00000000        3       1.00000000       0.00000000       0.00000000       0.00000000       0.00000000       0.00000000       0.00000000
H        0.00000000       3.24026883      20.00000000        3       1.00000000       0.00000000       0.00000000       0.00000000       0.00000000       0.00000000       0.00000000
H        2.80615512       3.24026883      20.00000000        3       1.00000000       0.00000000       0.00000000       0.00000000       0.00000000       0.00000000       0.00000000
H        0.00000000       1.62013441      22.29121606        2       1.00000000       0.00000000       0.00000000       0.00000000       0.00000000       0.00000000       0.00000000
H        2.80615512       1.62013441      22.29121606        2       1.00000000       0.00000000       0.00000000       0.00000000       0.00000000       0.00000000       0.00000000
H        1.40307756       4.05033604      22.29121606        2       1.00000000       0.00000000       0.00000000       0.00000000       0.00000000       0.00000000       0.00000000
H        4.20923268       4.05033604      22.29121606        2       1.00000000       0.00000000       0.00000000       0.00000000       0.00000000       0.00000000       0.00000000
H        0.00000000       0.00000000      24.58243212        1       1.00000000       0.00000000       0.00000000       0.00000000       0.00000000       0.00000000       0.00000000
H        2.80615512       0.00000000      24.58243212        1       1.00000000       0.00000000       0.00000000       0.00000000       0.00000000       0.00000000       0.00000000
H        1.40307756       2.43020162      24.58243212        1       1.00000000       0.00000000       0.00000000       0.00000000       0.00000000       0.00000000       0.00000000
H        4.20923268       2.43020162      24.58243212        1       1.00000000       0.00000000       0.00000000       0.00000000       0.00000000       0.00000000       0.00000000
H        0.00626047       3.22099729      15.56586845        0       1.00000000       0.00000081       0.00000275       0.00000233       0.00000073       0.00000189      -0.00000351
H        2.79584444       1.63473917      17.76898213        0       1.00000000       0.00000015      -0.00000226       0.00000075       0.00000500      -0.00000139      -0.00000396
H        1.41338997       4.06494120      17.76898228        0       1.00000000       0.00000532       0.00000000       0.00000078       0.00000603      -0.00000308       0.00000593
H        0.00379281       1.60711534      17.79330578        0       1.00000000       0.00000420       0.00000365       0.00000064      -0.00000330       0.00000105      -0.00000225
H        4.20544230       4.03731865      17.79330551        0       1.00000000      -0.00000524      -0.00000165       0.00000190      -0.00000409      -0.00000053       0.00000169
H        4.20297858       0.79079495      15.56586472        0       1.00000000       0.00000299       0.00000227      -0.00000143       0.00000215      -0.00000252       0.00000522
18
Lattice="5.612310241546866 0.0 0.0 0.0 4.860403243099165 0.0 0.0 0.0 44.58243212332868" Properties=species:S:1:pos:R:3:tags:I:1:masses:R:1:momenta:R:3:forces:R:3 KEmax=23.26679191048647 iter=87369 volume=1216.1236359717223 ns_energy=-11.647137731997496 last_walked_iter_clone=87239 energy=-11.647137732040635 stress="0.004540992207822602 -5.4716513091545615e-09 1.7349112246242088e-08 -5.4716513091545615e-09 0.004537137922606794 6.091637194806709e-09 1.7349112246242088e-08 6.091637194806709e-09 0.0023242497289803297" pbc="T T T"
H        1.40307756       0.81006721      20.00000000        3       1.00000000       0.00000000       0.00000000       0.00000000       0.00000000       0.00000000       0.00000000
H        4.20923268       0.81006721      20.00000000        3       1.00000000       0.00000000       0.00000000       0.00000000       0.00000000       0.00000000       0.00000000
H        0.00000000       3.24026883      20.00000000        3       1.00000000       0.00000000       0.00000000       0.00000000       0.00000000       0.00000000       0.00000000
H        2.80615512       3.24026883      20.00000000        3       1.00000000       0.00000000       0.00000000       0.00000000       0.00000000       0.00000000       0.00000000
H        0.00000000       1.62013441      22.29121606        2       1.00000000       0.00000000       0.00000000       0.00000000       0.00000000       0.00000000       0.00000000
H        2.80615512       1.62013441      22.29121606        2       1.00000000       0.00000000       0.00000000       0.00000000       0.00000000       0.00000000       0.00000000
H        1.40307756       4.05033604      22.29121606        2       1.00000000       0.00000000       0.00000000       0.00000000       0.00000000       0.00000000       0.00000000
H        4.20923268       4.05033604      22.29121606        2       1.00000000       0.00000000       0.00000000       0.00000000       0.00000000       0.00000000       0.00000000
H        0.00000000       0.00000000      24.58243212        1       1.00000000       0.00000000       0.00000000       0.00000000       0.00000000       0.00000000       0.00000000
H        2.80615512       0.00000000      24.58243212        1       1.00000000       0.00000000       0.00000000       0.00000000       0.00000000       0.00000000       0.00000000
H        1.40307756       2.43020162      24.58243212        1       1.00000000       0.00000000       0.00000000       0.00000000       0.00000000       0.00000000       0.00000000
H        4.20923268       2.43020162      24.58243212        1       1.00000000       0.00000000       0.00000000       0.00000000       0.00000000       0.00000000       0.00000000
H        0.00625239       3.22100045      15.56586620        0       1.00000000      -0.00000018       0.00000006       0.00000104       0.00000073       0.00000189      -0.00000351
H        2.79584395       1.63474223      17.76898273        0       1.00000000       0.00000131       0.00000224      -0.00000159       0.00000500      -0.00000139      -0.00000396
H        1.41338886       4.06494288      17.76898059        0       1.00000000       0.00000259       0.00000124      -0.00000094       0.00000603      -0.00000308       0.00000593
H        0.00378948       1.60711870      17.79330386        0       1.00000000       0.00000536      -0.00000191      -0.00000229      -0.00000330       0.00000105      -0.00000225
H        4.20544112       4.03732175      17.79330482        0       1.00000000      -0.00000231      -0.00000376       0.00000047      -0.00000409      -0.00000053       0.00000169
H        4.20297474       0.79079888      15.56586711        0       1.00000000       0.00000059       0.00000023      -0.00000056       0.00000215      -0.00000252       0.00000522
18
Lattice="5.612310241546866 0.0 0.0 0.0 4.860403243099165 0.0 0.0 0.0 44.58243212332868" Properties=species:S:1:pos:R:3:tags:I:1:masses:R:1:momenta:R:3:forces:R:3 KEmax=23.26679191048647 iter=87369 volume=1216.1236359717223 ns_energy=-11.647137731997626 last_walked_iter_clone=87258 energy=-11.647137732040635 stress="0.004540992207822602 -5.4716513091545615e-09 1.7349112246242088e-08 -5.4716513091545615e-09 0.004537137922606794 6.091637194806709e-09 1.7349112246242088e-08 6.091637194806709e-09 0.0023242497289803297" pbc="T T T"
H        1.40307756       0.81006721      20.00000000        3       1.00000000       0.00000000       0.00000000       0.00000000       0.00000000       0.00000000       0.00000000
H        4.20923268       0.81006721      20.00000000        3       1.00000000       0.00000000       0.00000000       0.00000000       0.00000000       0.00000000       0.00000000
H        0.00000000       3.24026883      20.00000000        3       1.00000000       0.00000000       0.00000000       0.00000000       0.00000000       0.00000000       0.00000000
H        2.80615512       3.24026883      20.00000000        3       1.00000000       0.00000000       0.00000000       0.00000000       0.00000000       0.00000000       0.00000000
H        0.00000000       1.62013441      22.29121606        2       1.00000000       0.00000000       0.00000000       0.00000000       0.00000000       0.00000000       0.00000000
H        2.80615512       1.62013441      22.29121606        2       1.00000000       0.00000000       0.00000000       0.00000000       0.00000000       0.00000000       0.00000000
H        1.40307756       4.05033604      22.29121606        2       1.00000000       0.00000000       0.00000000       0.00000000       0.00000000       0.00000000       0.00000000
H        4.20923268       4.05033604      22.29121606        2       1.00000000       0.00000000       0.00000000       0.00000000       0.00000000       0.00000000       0.00000000
H        0.00000000       0.00000000      24.58243212        1       1.00000000       0.00000000       0.00000000       0.00000000       0.00000000       0.00000000       0.00000000
H        2.80615512       0.00000000      24.58243212        1       1.00000000       0.00000000       0.00000000       0.00000000       0.00000000       0.00000000       0.00000000
H        1.40307756       2.43020162      24.58243212        1       1.00000000       0.00000000       0.00000000       0.00000000       0.00000000       0.00000000       0.00000000
H        4.20923268       2.43020162      24.58243212        1       1.00000000       0.00000000       0.00000000       0.00000000       0.00000000       0.00000000       0.00000000
H        0.00626104       3.22099267      15.56587116        0       1.00000000       0.00000096       0.00000319       0.00000188       0.00000073       0.00000189      -0.00000351
H        2.79584621       1.63473781      17.76898188        0       1.00000000      -0.00000249       0.00000072      -0.00000093       0.00000500      -0.00000139      -0.00000396
H        1.41338871       4.06494032      17.76898397        0       1.00000000      -0.00000013      -0.00000048      -0.00000217       0.00000603      -0.00000308       0.00000593
H        0.00379360       1.60711408      17.79330559        0       1.00000000      -0.00000181      -0.00000114       0.00000188      -0.00000330       0.00000105      -0.00000225
H        4.20544212       4.03731318      17.79330606        0       1.00000000       0.00000021      -0.00000135       0.00000136      -0.00000409      -0.00000053       0.00000169
H        4.20298030       0.79079037      15.56586614        0       1.00000000       0.00000099       0.00000437      -0.00000251       0.00000215      -0.00000252       0.00000522
18
Lattice="5.612310241546866 0.0 0.0 0.0 4.860403243099165 0.0 0.0 0.0 44.58243212332868" Properties=species:S:1:pos:R:3:tags:I:1:masses:R:1:momenta:R:3:forces:R:3 KEmax=23.26679191048647 iter=87369 volume=1216.1236359717223 ns_energy=-11.647137731999896 last_walked_iter_clone=87220 energy=-11.647137732040635 stress="0.004540992207822602 -5.4716513091545615e-09 1.7349112246242088e-08 -5.4716513091545615e-09 0.004537137922606794 6.091637194806709e-09 1.7349112246242088e-08 6.091637194806709e-09 0.0023242497289803297" pbc="T T T"
H        1.40307756       0.81006721      20.00000000        3       1.00000000       0.00000000       0.00000000       0.00000000       0.00000000       0.00000000       0.00000000
H        4.20923268       0.81006721      20.00000000        3       1.00000000       0.00000000       0.00000000       0.00000000       0.00000000       0.00000000       0.00000000
H        0.00000000       3.24026883      20.00000000        3       1.00000000       0.00000000       0.00000000       0.00000000       0.00000000       0.00000000       0.00000000
H        2.80615512       3.24026883      20.00000000        3       1.00000000       0.00000000       0.00000000       0.00000000       0.00000000       0.00000000       0.00000000
H        0.00000000       1.62013441      22.29121606        2       1.00000000       0.00000000       0.00000000       0.00000000       0.00000000       0.00000000       0.00000000
H        2.80615512       1.62013441      22.29121606        2       1.00000000       0.00000000       0.00000000       0.00000000       0.00000000       0.00000000       0.00000000
H        1.40307756       4.05033604      22.29121606        2       1.00000000       0.00000000       0.00000000       0.00000000       0.00000000       0.00000000       0.00000000
H        4.20923268       4.05033604      22.29121606        2       1.00000000       0.00000000       0.00000000       0.00000000       0.00000000       0.00000000       0.00000000
H        0.00000000       0.00000000      24.58243212        1       1.00000000       0.00000000       0.00000000       0.00000000       0.00000000       0.00000000       0.00000000
H        2.80615512       0.00000000      24.58243212        1       1.00000000       0.00000000       0.00000000       0.00000000       0.00000000       0.00000000       0.00000000
H        1.40307756       2.43020162      24.58243212        1       1.00000000       0.00000000       0.00000000       0.00000000       0.00000000       0.00000000       0.00000000
H        4.20923268       2.43020162      24.58243212        1       1.00000000       0.00000000       0.00000000       0.00000000       0.00000000       0.00000000       0.00000000
H        0.00625734       3.22100124      15.56586896        0       1.00000000       0.00000376      -0.00000157      -0.00000068       0.00000073       0.00000189      -0.00000351
H        2.79584424       1.63473962      17.76898391        0       1.00000000      -0.00000064      -0.00000007       0.00000192       0.00000500      -0.00000139      -0.00000396
H        1.41338792       4.06494196      17.76898385        0       1.00000000       0.00000201      -0.00000191      -0.00000205       0.00000603      -0.00000308       0.00000593