18
Lattice="5.612310241546866 0.0 0.0 0.0 4.860403243099165 0.0 0.0 0.0 44.58243212332868" Properties=species:S:1:pos:R:3:tags:I:1:masses:R:1:momenta:R:3 KEmax=23.26679191048647 iter=99 volume=1216.1236359717223 ns_energy=14.319667456694827 last_walked_iter_clone=85 ns_P=0.0 config_n_global=99 ns_KE=22.07825845915219 pbc="T T T"
H        1.40307756       0.81006721      20.00000000        3       1.00000000       0.00000000       0.00000000       0.00000000
H        4.20923268       0.81006721      20.00000000        3       1.00000000       0.00000000       0.00000000       0.00000000
H        0.00000000       3.24026883      20.00000000        3       1.00000000       0.00000000       0.00000000       0.00000000
H        2.80615512       3.24026883      20.00000000        3       1.00000000       0.00000000       0.00000000       0.00000000
H        0.00000000       1.62013441      22.29121606        2       1.00000000       0.00000000       0.00000000       0.00000000
H        2.80615512       1.62013441      22.29121606        2       1.00000000       0.00000000       0.00000000       0.00000000
H        1.40307756       4.05033604      22.29121606        2       1.00000000       0.00000000       0.00000000       0.00000000
H        4.20923268       4.05033604      22.29121606        2       1.00000000       0.00000000       0.00000000       0.00000000
H        0.00000000       0.00000000      24.58243212        1       1.00000000       0.00000000       0.00000000       0.00000000
H        2.80615512       0.00000000      24.58243212        1       1.00000000       0.00000000       0.00000000       0.00000000
H        1.40307756       2.43020162      24.58243212        1       1.00000000       0.00000000       0.00000000       0.00000000
H        4.20923268       2.43020162      24.58243212        1       1.00000000       0.00000000       0.00000000       0.00000000
H        4.46211522       2.05535851      43.63329018        0       1.00000000      -0.69318189      -2.59690917       0.90725703
H        3.46998767       3.87128543      37.91259886        0       1.00000000       0.48831960      -2.56594872       0.82155037
H        5.01065265       0.67659933      12.75228752        0       1.00000000       0.97391305      -1.03310580       1.18408000
H        3.38833091       3.02139438       7.08343910        0       1.00000000      -2.41172095      -0.89846003      -1.09702740
H        1.64069941       0.73426916      34.82872938        0       1.00000000       0.26400471      -0.84147293       1.64742461
H        4.31480999       1.68848225      35.71739163        0       1.00000000      -0.66282910      -2.87690376       2.27130171
18
Lattice="5.612310241546866 0.0 0.0 0.0 4.860403243099165 0.0 0.0 0.0 44.58243212332868" Properties=species:S:1:pos:R:3:tags:I:1:masses:R:1:momenta:R:3 KEmax=23.26679191048647 iter=199 volume=1216.1236359717223 ns_energy=11.000701848008188 last_walked_iter_clone=153 ns_P=0.0 config_n_global=199 ns_KE=18.737253441867566 pbc="T T T"
H        1.40307756       0.81006721      20.00000000        3       1.00000000       0.00000000       0.00000000       0.00000000
H        4.20923268       0.81006721      20.00000000        3       1.00000000       0.00000000       0.00000000       0.00000000
H        0.00000000       3.24026883      20.00000000        3       1.00000000       0.00000000       0.00000000       0.00000000
H        2.80615512       3.24026883      20.00000000        3       1.00000000       0.00000000       0.00000000       0.00000000
H        0.00000000       1.62013441      22.29121606        2       1.00000000       0.00000000       0.00000000       0.00000000
H        2.80615512       1.62013441      22.29121606        2       1.00000000       0.00000000       0.00000000       0.00000000
H        1.40307756       4.05033604      22.29121606        2       1.00000000       0.00000000       0.00000000       0.00000000
H        4.20923268       4.05033604      22.29121606        2       1.00000000       0.00000000       0.00000000       0.00000000
H        0.00000000       0.00000000      24.58243212        1       1.00000000       0.00000000       0.00000000       0.00000000
H        2.80615512       0.00000000      24.58243212        1       1.00000000       0.00000000       0.00000000       0.00000000
H        1.40307756       2.43020162      24.58243212        1       1.00000000       0.00000000       0.00000000       0.00000000
H        4.20923268       2.43020162      24.58243212        1       1.00000000       0.00000000       0.00000000       0.00000000
H        2.96232407      -0.26288041      31.88132716        0       1.00000000      -0.27835936      -1.45565643       1.09367776
H        2.78455033       1.32810573      40.22113733        0       1.00000000       0.38859620      -1.86164945       1.66699715
H        1.46212288       3.34849838      35.62386864        0       1.00000000       0.00310822      -0.43902224      -2.06152255
H        4.49559614       2.23039067      28.77621994        0       1.00000000       0.09600511      -1.15135235      -3.76737300
H        0.44217226       3.84915564      -0.21146978        0       1.00000000      -0.00784359      -0.10907087      -2.51074654
H        5.09523384       1.75211051      38.92362699        0       1.00000000       0.35474030       0.68186857      -0.89954741
18
Lattice="5.612310241546866 0.0 0.0 0.0 4.860403243099165 0.0 0.0 0.0 44.58243212332868" Properties=species:S:1:pos:R:3:tags:I:1:masses:R:1:momenta:R:3 KEmax=23.26679191048647 iter=299 volume=1216.1236359717223 ns_energy=8.193448332903268 last_walked_iter_clone=259 ns_P=0.0 config_n_global=299 ns_KE=15.964911331958005 pbc="T T T"
H        1.40307756       0.81006721      20.00000000        3       1.00000000       0.00000000       0.00000000       0.00000000
H        4.20923268       0.81006721      20.00000000        3       1.00000000       0.00000000       0.00000000       0.00000000
H        0.00000000       3.24026883      20.00000000        3       1.00000000       0.00000000       0.00000000       0.00000000
H        2.80615512       3.24026883      20.00000000        3       1.00000000       0.00000000       0.00000000       0.00000000
H        0.00000000       1.62013441      22.29121606        2       1.00000000       0.00000000       0.00000000       0.00000000
H        2.80615512       1.62013441      22.29121606        2       1.00000000       0.00000000       0.00000000       0.00000000
H        1.40307756       4.05033604      22.29121606        2       1.00000000       0.00000000       0.00000000       0.00000000
H        4.20923268       4.05033604      22.29121606        2       1.00000000       0.00000000       0.00000000       0.00000000
H        0.00000000       0.00000000      24.58243212        1       1.00000000       0.00000000       0.00000000       0.00000000
H        2.80615512       0.00000000      24.58243212        1       1.00000000       0.00000000       0.00000000       0.00000000
H        1.40307756       2.43020162      24.58243212        1       1.00000000       0.00000000       0.00000000       0.00000000
H        4.20923268       2.43020162      24.58243212        1       1.00000000       0.00000000       0.00000000       0.00000000
H        0.32715203       2.80200725      33.55145036        0       1.00000000       0.84760190       0.54748701      -0.33738323
H        2.04339167       2.75106949       7.73710381        0       1.00000000       0.58514711      -1.14827356      -0.31780632
H        3.97294728       2.73358650      16.28663083        0       1.00000000      -0.04265461      -0.68540790      -1.75541573
H        5.40347256       1.76108186       6.44486556        0       1.00000000      -0.30909403      -2.30346583      -1.52887214
H        4.56012788       1.68062080      13.45631156        0       1.00000000       2.73069273       2.42558204      -1.07241679
H        0.70625197       0.80734066      43.14512153        0       1.00000000      -0.86127488       0.62483417      -1.45651686
18
Lattice="5.612310241546866 0.0 0.0 0.0 4.860403243099165 0.0 0.0 0.0 44.58243212332868" Properties=species:S:1:pos:R:3:tags:I:1:masses:R:1:momenta:R:3 KEmax=23.26679191048647 iter=399 volume=1216.1236359717223 ns_energy=5.970875894360043 last_walked_iter_clone=378 ns_P=0.0 config_n_global=399 ns_KE=13.584222796273567 pbc="T T T"
H        1.40307756       0.81006721      20.00000000        3       1.00000000       0.00000000       0.00000000       0.00000000
H        4.20923268       0.81006721      20.00000000        3       1.00000000       0.00000000       0.00000000       0.00000000
H        0.00000000       3.24026883      20.00000000        3       1.00000000       0.00000000       0.00000000       0.00000000
H        2.80615512       3.24026883      20.00000000        3       1.00000000       0.00000000       0.00000000       0.00000000
H        0.00000000       1.62013441      22.29121606        2       1.00000000       0.00000000       0.00000000       0.00000000
H        2.80615512       1.62013441      22.29121606        2       1.00000000       0.00000000       0.00000000       0.00000000
H        1.40307756       4.05033604      22.29121606        2       1.00000000       0.00000000       0.00000000       0.00000000
H        4.20923268       4.05033604      22.29121606        2       1.00000000       0.00000000       0.00000000       0.00000000
H        0.00000000       0.00000000      24.58243212        1       1.00000000       0.00000000       0.00000000       0.00000000
H        2.80615512       0.00000000      24.58243212        1       1.00000000       0.00000000       0.00000000       0.00000000
H        1.40307756       2.43020162      24.58243212        1       1.00000000       0.00000000       0.00000000       0.00000000
H        4.20923268       2.43020162      24.58243212        1       1.00000000       0.00000000       0.00000000       0.00000000
H        3.73353619       3.30717967       2.99815117        0       1.00000000      -0.42192689       1.39995567      -0.82723745
H        2.81417989       3.83766466      32.32228714        0       1.00000000      -0.27181827       1.03413370       0.37970817
H        3.32284180       1.25005294      15.77260806        0       1.00000000      -1.34585062      -1.45736138       2.77827088
H        0.74614333       4.75935558       7.75025488        0       1.00000000      -1.12623067       0.09157007       0.48908979
H        4.18485278       4.60329305      37.19588923        0       1.00000000       0.41699867       0.02653851       2.24858972
H        1.64836458       3.39515703      28.33314309        0       1.00000000      -0.47745912      -2.03184680       0.54919803
18
Lattice="5.612310241546866 0.0 0.0 0.0 4.860403243099165 0.0 0.0 0.0 44.58243212332868" Properties=species:S:1:pos:R:3:tags:I:1:masses:R:1:momenta:R:3 KEmax=23.26679191048647 iter=499 volume=1216.1236359717223 ns_energy=4.092166480169108 last_walked_iter_clone=467 ns_P=0.0 config_n_global=499 ns_KE=10.991295257086538 pbc="T T T"
H        1.40307756       0.81006721      20.00000000        3       1.00000000       0.00000000       0.00000000       0.00000000
H        4.20923268       0.81006721      20.00000000        3       1.00000000       0.00000000       0.00000000       0.00000000
H        0.00000000       3.24026883      20.00000000        3       1.00000000       0.00000000       0.00000000       0.00000000
H        2.80615512       3.24026883      20.00000000        3       1.00000000       0.00000000       0.00000000       0.00000000
H        0.00000000       1.62013441      22.29121606        2       1.00000000       0.00000000       0.00000000       0.00000000
H        2.80615512       1.62013441      22.29121606        2       1.00000000       0.00000000       0.00000000       0.00000000
H        1.40307756       4.05033604      22.29121606        2       1.00000000       0.00000000       0.00000000       0.00000000
H        4.20923268       4.05033604      22.29121606        2       1.00000000       0.00000000       0.00000000       0.00000000
H        0.00000000       0.00000000      24.58243212        1       1.00000000       0.00000000       0.00000000       0.00000000
H        2.80615512       0.00000000      24.58243212        1       1.00000000       0.00000000       0.00000000       0.00000000
H        1.40307756       2.43020162      24.58243212        1       1.00000000       0.00000000       0.00000000       0.00000000
H        4.20923268       2.43020162      24.58243212        1       1.00000000       0.00000000       0.00000000       0.00000000
H        0.31413252       2.23576362      44.72385784        0       1.00000000       1.12449687       1.11728117      -1.44306948
H        4.71422916       0.75206282      13.65761939        0       1.00000000      -0.05811540       0.87773727       1.70343276
H        2.92364461       3.40531506      13.32812902        0       1.00000000      -0.12454794       1.20306307      -1.79710103
H        2.20414352       4.24159560       6.21042452        0       1.00000000       1.35294360      -0.01051690      -1.66938630
H        3.77001753       3.97732970      17.83053406        0       1.00000000       0.18469976      -1.04328271       0.40055002
H        2.35811966       4.79474669       8.31789081        0       1.00000000       0.31902237      -0.17008844       1.72866601
18
Lattice="5.612310241546866 0.0 0.0 0.0 4.860403243099165 0.0 0.0 0.0 44.58243212332868" Properties=species:S:1:pos:R:3:tags:I:1:masses:R:1:momenta:R:3 KEmax=23.26679191048647 iter=599 volume=1216.1236359717223 ns_energy=2.7399027015003288 last_walked_iter_clone=556 ns_P=0.0 config_n_global=599 ns_KE=8.600157484097185 pbc="T T T"
H        1.40307756       0.81006721      20.00000000        3       1.00000000       0.00000000       0.00000000       0.00000000
H        4.20923268       0.81006721      20.00000000        3       1.00000000       0.00000000       0.00000000       0.00000000
H        0.00000000       3.24026883      20.00000000        3       1.00000000       0.00000000       0.00000000       0.00000000
H        2.80615512       3.24026883      20.00000000        3       1.00000000       0.00000000       0.00000000       0.00000000
H        0.00000000       1.62013441      22.29121606        2       1.00000000       0.00000000       0.00000000       0.00000000
H        2.80615512       1.62013441      22.29121606        2       1.00000000       0.00000000       0.00000000       0.00000000
H        1.40307756       4.05033604      22.29121606        2       1.00000000       0.00000000       0.00000000       0.00000000
H        4.20923268       4.05033604      22.29121606        2       1.00000000       0.00000000       0.00000000       0.00000000
H        0.00000000       0.00000000      24.58243212        1       1.00000000       0.00000000       0.00000000       0.00000000
H        2.80615512       0.00000000      24.58243212        1       1.00000000       0.00000000       0.00000000       0.00000000
H        1.40307756       2.43020162      24.58243212        1       1.00000000       0.00000000       0.00000000       0.00000000
H        4.20923268       2.43020162      24.58243212        1       1.00000000       0.00000000       0.00000000       0.00000000
H        3.62344008       4.04554082      43.16514495        0       1.00000000       0.28515519      -0.36698622       1.27624126
H        5.49429412       3.28739030      10.35372323        0       1.00000000      -0.53902705      -0.03843276      -0.34906483
H        3.93672826       0.82307407      39.93949204        0       1.00000000       1.48712668      -1.57492976       0.11024093
H        2.55131138       2.42563479       0.51641445        0       1.00000000       1.26531393      -0.09411666      -1.47396676
H        0.45816075       2.21018602      34.05717660        0       1.00000000      -1.44060821       1.36429489       0.84946199
H        0.03954746       3.78135242      43.68605854        0       1.00000000      -0.75782252      -0.55556310       0.95598948
18
Lattice="5.612310241546866 0.0 0.0 0.0 4.860403243099165 0.0 0.0 0.0 44.58243212332868" Properties=species:S:1:pos:R:3:tags:I:1:masses:R:1:momenta:R:3 KEmax=23.26679191048647 iter=699 volume=1216.1236359717223 ns_energy=1.3751587464341557 last_walked_iter_clone=652 ns_P=0.0 config_n_global=699 ns_KE=8.95474978371576 pbc="T T T"
H        1.40307756       0.81006721      20.00000000        3       1.00000000       0.00000000       0.00000000       0.00000000
H        4.20923268       0.81006721      20.00000000        3       1.00000000       0.00000000       0.00000000       0.00000000
H        0.00000000       3.24026883      20.00000000        3       1.00000000       0.00000000       0.00000000       0.00000000
H        2.80615512       3.24026883      20.00000000        3       1.00000000       0.00000000       0.00000000       0.00000000
H        0.00000000       1.62013441      22.29121606        2       1.00000000       0.00000000       0.00000000       0.00000000
H        2.80615512       1.62013441      22.29121606        2       1.00000000       0.00000000       0.00000000       0.00000000
H        1.40307756       4.05033604      22.29121606        2       1.00000000       0.00000000       0.00000000       0.00000000
H        4.20923268       4.05033604      22.29121606        2       1.00000000       0.00000000       0.00000000       0.00000000
H        0.00000000       0.00000000      24.58243212        1       1.00000000       0.00000000       0.00000000       0.00000000
H        2.80615512       0.00000000      24.58243212        1       1.00000000       0.00000000       0.00000000       0.00000000
H        1.40307756       2.43020162      24.58243212        1       1.00000000       0.00000000       0.00000000       0.00000000
H        4.20923268       2.43020162      24.58243212        1       1.00000000       0.00000000       0.00000000       0.00000000
H        0.31400387       1.61582133       1.66205303        0       1.00000000      -1.63868159       1.39274449       0.78153557
H        3.27606899       2.26155190      37.60856756        0       1.00000000       0.27117772       0.06143351      -1.04069257
H        0.21477989       2.44274142      43.70399905        0       1.00000000      -1.11321053      -0.20213204       0.92053065
H        3.40607226       3.63006984      32.83403634        0       1.00000000      -0.74284792       0.82909891      -0.70586063
H        5.45949483       3.05055409       9.15286361        0       1.00000000       2.01614024      -0.40094937       1.42123764
H        2.28797549       1.46934009      33.02835450        0       1.00000000      -0.42212649      -1.10632918      -0.02724690
18
Lattice="5.612310241546866 0.0 0.0 0.0 4.860403243099165 0.0 0.0 0.0 44.58243212332868" Properties=species:S:1:pos:R:3:tags:I:1:masses:R:1:momenta:R:3 KEmax=23.26679191048647 iter=799 volume=1216.1236359717223 ns_energy=0.5575670646363482 last_walked_iter_clone=746 ns_P=0.0 config_n_global=799 ns_KE=8.367584204295897 pbc="T T T"
H        1.40307756       0.81006721      20.00000000        3       1.00000000       0.00000000       0.00000000       0.00000000
H        4.20923268       0.81006721      20.00000000        3       1.00000000       0.00000000       0.00000000       0.00000000
H        0.00000000       3.24026883      20.00000000        3       1.00000000       0.00000000       0.00000000       0.00000000
H        2.80615512       3.24026883      20.00000000        3       1.00000000       0.00000000       0.00000000       0.00000000
H        0.00000000       1.62013441      22.29121606        2       1.00000000       0.00000000       0.00000000       0.00000000
H        2.80615512       1.62013441      22.29121606        2       1.00000000       0.00000000       0.00000000       0.00000000
H        1.40307756       4.05033604      22.29121606        2       1.00000000       0.00000000       0.00000000       0.00000000
H        4.20923268       4.05033604      22.29121606        2       1.00000000       0.00000000       0.00000000       0.00000000
H        0.00000000       0.00000000      24.58243212        1       1.00000000       0.00000000       0.00000000       0.00000000
H        2.80615512       0.00000000      24.58243212        1       1.00000000       0.00000000       0.00000000       0.00000000
H        1.40307756       2.43020162      24.58243212        1       1.00000000       0.00000000       0.00000000       0.00000000
H        4.20923268       2.43020162      24.58243212        1       1.00000000       0.00000000       0.00000000       0.00000000
H        1.98659175       0.58373066      40.21766244        0       1.00000000      -1.27317942       0.22304452      -1.11427880
H        4.79794178       1.05321172       7.03274345        0       1.00000000       0.59605072      -1.38671752       0.03466488
H        2.62810432       1.59276381       0.51610510        0       1.00000000      -0.03817312       0.78691197       0.60487743
H        4.26894073       4.05709811      27.60342828        0       1.00000000       0.75387371       1.02202519       1.50712824
H        3.05908055       1.22040951      11.78068992        0       1.00000000       1.29184638       0.88297812       0.33466546
H        0.46669219       0.03665556       1.93322948        0       1.00000000      -1.23746155      -1.39876282      -0.79001584
18
Lattice="5.612310241546866 0.0 0.0 0.0 4.860403243099165 0.0 0.0 0.0 44.58243212332868" Properties=species:S:1:pos:R:3:tags:I:1:masses:R:1:momenta:R:3 KEmax=23.26679191048647 iter=899 volume=1216.1236359717223 ns_energy=-0.09338138544266338 ns_P=0.0 config_n_global=899 ns_KE=7.312095558998539 pbc="T T T"
H        1.40307756       0.81006721      20.00000000        3       1.00000000       0.00000000       0.00000000       0.00000000
H        4.20923268       0.81006721      20.00000000        3       1.00000000       0.00000000       0.00000000       0.00000000
H        0.00000000       3.24026883      20.00000000        3       1.00000000       0.00000000       0.00000000       0.00000000
H        2.80615512       3.24026883      20.00000000        3       1.00000000       0.00000000       0.00000000       0.00000000
H        0.00000000       1.62013441      22.29121606        2       1.00000000       0.00000000       0.00000000       0.00000000
H        2.80615512       1.62013441      22.29121606        2       1.00000000       0.00000000       0.00000000       0.00000000
H        1.40307756       4.05033604      22.29121606        2       1.00000000       0.00000000       0.00000000       0.00000000
H        4.20923268       4.05033604      22.29121606        2       1.00000000       0.00000000       0.00000000       0.00000000
H        0.00000000       0.00000000      24.58243212        1       1.00000000       0.00000000       0.00000000       0.00000000
H        2.80615512       0.00000000      24.58243212        1       1.00000000       0.00000000       0.00000000       0.00000000
H        1.40307756       2.43020162      24.58243212        1       1.00000000       0.00000000       0.00000000       0.00000000
H        4.20923268       2.43020162      24.58243212        1       1.00000000       0.00000000       0.00000000       0.00000000
H        1.39717278       4.33761142      43.87104374        0       1.00000000      -0.20416850      -0.04294447       1.27407712
H        0.39862497       2.54726032      16.19308392        0       1.00000000       1.14663766       0.37030499       1.20377704
H        2.26951860       3.60250444      33.20780760        0       1.00000000      -1.71710579      -0.90073442       0.06019781
H        1.06529980       1.61500312       7.67980504        0       1.00000000      -0.88356848      -0.59549071      -0.79323755
H        2.16795269       3.31548450      41.89206182        0       1.00000000       0.11068188      -0.69911475       0.90530191
H        1.88253850       2.14449031      10.38072351        0       1.00000000       0.05699156       1.18361962      -1.34301639
18
Lattice="5.612310241546866 0.0 0.0 0.0 4.860403243099165 0.0 0.0 0.0 44.58243212332868" Properties=species:S:1:pos:R:3:tags:I:1:masses:R:1:momenta:R:3 KEmax=23.26679191048647 iter=999 volume=1216.1236359717223 ns_energy=-0.6843685308004639 last_walked_iter_clone=858 ns_P=0.0 config_n_global=999 ns_KE=7.368113747452687 pbc="T T T"
H        1.40307756       0.81006721      20.00000000        3       1.00000000       0.00000000       0.00000000       0.00000000
H        4.20923268       0.81006721      20.00000000        3       1.00000000       0.00000000       0.00000000       0.00000000
H        0.00000000       3.24026883      20.00000000        3       1.00000000       0.00000000       0.00000000       0.00000000
H        2.80615512       3.24026883      20.00000000        3       1.00000000       0.00000000       0.00000000       0.00000000
H        0.00000000       1.62013441      22.29121606        2       1.00000000       0.00000000       0.00000000       0.00000000
H        2.80615512       1.62013441      22.29121606        2       1.00000000       0.00000000       0.00000000       0.00000000
H        1.40307756       4.05033604      22.29121606        2       1.00000000       0.00000000       0.00000000       0.00000000
H        4.20923268       4.05033604      22.29121606        2       1.00000000       0.00000000       0.00000000       0.00000000
H        0.00000000       0.00000000      24.58243212        1       1.00000000       0.00000000       0.00000000       0.00000000
H        2.80615512       0.00000000      24.58243212        1       1.00000000       0.00000000       0.00000000       0.00000000
H        1.40307756       2.43020162      24.58243212        1       1.00000000       0.00000000       0.00000000       0.00000000
H        4.20923268       2.43020162      24.58243212        1       1.00000000       0.00000000       0.00000000       0.00000000
H        4.95495401       3.13568549      11.20261877        0       1.00000000      -0.74634149       0.85890496       0.73604527
H        1.01972620       2.96763863      17.30667528        0       1.00000000      -0.29367798       0.38805235       1.02689368
H        4.82734165       4.13505683      30.53224972        0       1.00000000      -0.34698722      -0.46497564      -0.49862120
H        5.66573404       1.39825780      30.08991648        0       1.00000000      -0.79983603      -1.00752515      -1.32783989
H        2.84672565       4.61425177      17.82396190        0       1.00000000       0.17832273      -0.00647812      -0.87058797
H        1.18643709       2.72850095       7.49411961        0       1.00000000       0.10917075       1.16735063      -2.33254376
18
Lattice="5.612310241546866 0.0 0.0 0.0 4.860403243099165 0.0 0.0 0.0 44.58243212332868" Properties=species:S:1:pos:R:3:tags:I:1:masses:R:1:momenta:R:3 KEmax=23.26679191048647 iter=1099 volume=1216.1236359717223 ns_energy=-1.1935945687744465 last_walked_iter_clone=1041 ns_P=0.0 config_n_global=1099 ns_KE=6.515856001603224 pbc="T T T"
H        1.40307756       0.81006721      20.00000000        3       1.00000000       0.00000000       0.00000000       0.00000000
H        4.20923268       0.81006721      20.00000000        3       1.00000000       0.00000000       0.00000000       0.00000000
H        0.00000000       3.24026883      20.00000000        3       1.00000000       0.00000000       0.00000000       0.00000000
H        2.80615512       3.24026883      20.00000000        3       1.00000000       0.00000000       0.00000000       0.00000000
H        0.00000000       1.62013441      22.29121606        2       1.00000000       0.00000000       0.00000000       0.00000000
H        2.80615512       1.62013441      22.29121606        2       1.00000000       0.00000000       0.00000000       0.00000000
H        1.40307756       4.05033604      22.29121606        2       1.00000000       0.00000000       0.00000000       0.00000000
H        4.20923268       4.05033604      22.29121606        2       1.00000000       0.00000000       0.00000000       0.00000000
H        0.00000000       0.00000000      24.58243212        1       1.00000000       0.00000000       0.00000000       0.00000000
H        2.80615512       0.00000000      24.58243212        1       1.00000000       0.00000000       0.00000000       0.00000000
H        1.40307756       2.43020162      24.58243212        1       1.00000000       0.00000000       0.00000000       0.00000000
H        4.20923268       2.43020162      24.58243212        1       1.00000000       0.00000000       0.00000000       0.00000000
H        2.06897747       1.27955729       0.59321956        0       1.00000000      -0.83956061       0.34878134       1.34429159
H        0.37654420       3.05218219      30.05271771        0       1.00000000       1.44993352       0.70355745      -0.13453485
H        5.42137028       2.29669815      33.15319245        0       1.00000000       0.06487899       0.75252103       1.76529078
H        3.11475591       3.71454188      17.04082660        0       1.00000000      -0.02589836       0.73124883       0.10331239
H        0.27473867       3.76684743      17.83444563        0       1.00000000       0.86095176       1.10562093       1.03116487
H        4.17491021       3.78559160      43.47576981        0       1.00000000      -0.66897340      -0.26594262       0.06838533
18
Lattice="5.612310241546866 0.0 0.0 0.0 4.860403243099165 0.0 0.0 0.0 44.58243212332868" Properties=species:S:1:pos:R:3:tags:I:1:masses:R:1:momenta:R:3 KEmax=23.26679191048647 iter=1199 volume=1216.1236359717223 ns_energy=-1.6687143224659786 last_walked_iter_clone=996 ns_P=0.0 config_n_global=1199 ns_KE=5.994048112240693 pbc="T T T"