18
Lattice="5.612310241546866 0.0 0.0 0.0 4.860403243099165 0.0 0.0 0.0 44.58243212332868" Properties=species:S:1:pos:R:3:tags:I:1:masses:R:1:momenta:R:3:forces:R:3 KEmax=23.26679191048647 iter=119999 volume=1216.1236359717223 ns_energy=-11.647137732079095 last_walked_iter_clone=119905 energy=-11.647137732076597 stress="0.0045409866974691696 -1.4103613869148217e-09 -4.116174614143776e-10 -1.4103613869148217e-09 0.004537136097543798 9.498120140932297e-09 -4.116174614143776e-10 9.498120140932297e-09 0.0023242319579501055" pbc="T T T"
H        1.40307756       0.81006721      20.00000000        3       1.00000000       0.00000000       0.00000000       0.00000000       0.00000000       0.00000000       0.00000000
H        4.20923268       0.81006721      20.00000000        3       1.00000000       0.00000000       0.00000000       0.00000000       0.00000000       0.00000000       0.00000000
H        0.00000000       3.24026883      20.00000000        3       1.00000000       0.00000000       0.00000000       0.00000000       0.00000000       0.00000000       0.00000000
H        2.80615512       3.24026883      20.00000000        3       1.00000000       0.00000000       0.00000000       0.00000000       0.00000000       0.00000000       0.00000000
H        0.00000000       1.62013441      22.29121606        2       1.00000000       0.00000000       0.00000000       0.00000000       0.00000000       0.00000000       0.00000000
H        2.80615512       1.62013441      22.29121606        2       1.00000000       0.00000000       0.00000000       0.00000000       0.00000000       0.00000000       0.00000000
H        1.40307756       4.05033604      22.29121606        2       1.00000000       0.00000000       0.00000000       0.00000000       0.00000000       0.00000000       0.00000000
H        4.20923268       4.05033604      22.29121606        2       1.00000000       0.00000000       0.00000000       0.00000000       0.00000000       0.00000000       0.00000000
H        0.00000000       0.00000000      24.58243212        1       1.00000000       0.00000000       0.00000000       0.00000000       0.00000000       0.00000000       0.00000000
H        2.80615512       0.00000000      24.58243212        1       1.00000000       0.00000000       0.00000000       0.00000000       0.00000000       0.00000000       0.00000000
H        1.40307756       2.43020162      24.58243212        1       1.00000000       0.00000000       0.00000000       0.00000000       0.00000000       0.00000000       0.00000000
H        4.20923268       2.43020162      24.58243212        1       1.00000000       0.00000000       0.00000000       0.00000000       0.00000000       0.00000000       0.00000000
H        0.00625679       3.22099699      15.56586730        0       1.00000000      -0.00000050      -0.00000135       0.00000063      -0.00000113       0.00000010      -0.00000330
H        2.79584395       1.63473832      17.76898338        0       1.00000000       0.00000032      -0.00000038      -0.00000124       0.00000284      -0.00000169      -0.00000341
H        1.41338810       4.06494021      17.76898248        0       1.00000000       0.00000017       0.00000027      -0.00000071       0.00000001       0.00000110       0.00000128
H        0.00379212       1.60711510      17.79330501        0       1.00000000       0.00000068       0.00000029       0.00000113      -0.00000041      -0.00000474       0.00000124
H        4.20544036       4.03731634      17.79330462        0       1.00000000      -0.00000054      -0.00000075      -0.00000010      -0.00000095       0.00000233      -0.00000056
H        4.20297479       0.79079656      15.56586729        0       1.00000000       0.00000069       0.00000043      -0.00000039       0.00000026      -0.00000029       0.00000150
18
Lattice="5.612310241546866 0.0 0.0 0.0 4.860403243099165 0.0 0.0 0.0 44.58243212332868" Properties=species:S:1:pos:R:3:tags:I:1:masses:R:1:momenta:R:3:forces:R:3 KEmax=23.26679191048647 iter=119999 volume=1216.1236359717223 ns_energy=-11.647137732079065 last_walked_iter_clone=117655 energy=-11.647137732076597 stress="0.0045409866974691696 -1.4103613869148217e-09 -4.116174614143776e-10 -1.4103613869148217e-09 0.004537136097543798 9.498120140932297e-09 -4.116174614143776e-10 9.498120140932297e-09 0.0023242319579501055" pbc="T T T"
H        1.40307756       0.81006721      20.00000000        3       1.00000000       0.00000000       0.00000000       0.00000000       0.00000000       0.00000000       0.00000000
H        4.20923268       0.81006721      20.00000000        3       1.00000000       0.00000000       0.00000000       0.00000000       0.00000000       0.00000000       0.00000000
H        0.00000000       3.24026883      20.00000000        3       1.00000000       0.00000000       0.00000000       0.00000000       0.00000000       0.00000000       0.00000000
H        2.80615512       3.24026883      20.00000000        3       1.00000000       0.00000000       0.00000000       0.00000000       0.00000000       0.00000000       0.00000000
H        0.00000000       1.62013441      22.29121606        2       1.00000000       0.00000000       0.00000000       0.00000000       0.00000000       0.00000000       0.00000000
H        2.80615512       1.62013441      22.29121606        2       1.00000000       0.00000000       0.00000000       0.00000000       0.00000000       0.00000000       0.00000000
H        1.40307756       4.05033604      22.29121606        2       1.00000000       0.00000000       0.00000000       0.00000000       0.00000000       0.00000000       0.00000000
H        4.20923268       4.05033604      22.29121606        2       1.00000000       0.00000000       0.00000000       0.00000000       0.00000000       0.00000000       0.00000000
H        0.00000000       0.00000000      24.58243212        1       1.00000000       0.00000000       0.00000000       0.00000000       0.00000000       0.00000000       0.00000000
H        2.80615512       0.00000000      24.58243212        1       1.00000000       0.00000000       0.00000000       0.00000000       0.00000000       0.00000000       0.00000000
H        1.40307756       2.43020162      24.58243212        1       1.00000000       0.00000000       0.00000000       0.00000000       0.00000000       0.00000000       0.00000000
H        4.20923268       2.43020162      24.58243212        1       1.00000000       0.00000000       0.00000000       0.00000000       0.00000000       0.00000000       0.00000000
H        0.00625793       3.22099752      15.56586834        0       1.00000000       0.00000007      -0.00000069       0.00000065      -0.00000113       0.00000010      -0.00000330
H        2.79584412       1.63473918      17.76898318        0       1.00000000       0.00000034       0.00000060      -0.00000001       0.00000284      -0.00000169      -0.00000341
H        1.41338882       4.06494092      17.76898279        0       1.00000000       0.00000071       0.00000028      -0.00000045       0.00000001       0.00000110       0.00000128
H        0.00379200       1.60711554      17.79330561        0       1.00000000       0.00000065      -0.00000052      -0.00000042      -0.00000041      -0.00000474       0.00000124
H        4.20544086       4.03731777      17.79330543        0       1.00000000      -0.00000005       0.00000025       0.00000080      -0.00000095       0.00000233      -0.00000056
H        4.20297613       0.79079607      15.56586805        0       1.00000000       0.00000190      -0.00000145       0.00000024       0.00000026      -0.00000029       0.00000150
18
Lattice="5.612310241546866 0.0 0.0 0.0 4.860403243099165 0.0 0.0 0.0 44.58243212332868" Properties=species:S:1:pos:R:3:tags:I:1:masses:R:1:momenta:R:3:forces:R:3 KEmax=23.26679191048647 iter=119999 volume=1216.1236359717223 ns_energy=-11.647137732079203 last_walked_iter_clone=118468 energy=-11.647137732076597 stress="0.0045409866974691696 -1.4103613869148217e-09 -4.116174614143776e-10 -1.4103613869148217e-09 0.004537136097543798 9.498120140932297e-09 -4.116174614143776e-10 9.498120140932297e-09 0.0023242319579501055" pbc="T T T"
H        1.40307756       0.81006721      20.00000000        3       1.00000000       0.00000000       0.00000000       0.00000000       0.00000000       0.00000000       0.00000000
H        4.20923268       0.81006721      20.00000000        3       1.00000000       0.00000000       0.00000000       0.00000000       0.00000000       0.00000000       0.00000000
H        0.00000000       3.24026883      20.00000000        3       1.00000000       0.00000000       0.00000000       0.00000000       0.00000000       0.00000000       0.00000000
H        2.80615512       3.24026883      20.00000000        3       1.00000000       0.00000000       0.00000000       0.00000000       0.00000000       0.00000000       0.00000000
H        0.00000000       1.62013441      22.29121606        2       1.00000000       0.00000000       0.00000000       0.00000000       0.00000000       0.00000000       0.00000000
H        2.80615512       1.62013441      22.29121606        2       1.00000000       0.00000000       0.00000000       0.00000000       0.00000000       0.00000000       0.00000000
H        1.40307756       4.05033604      22.29121606        2       1.00000000       0.00000000       0.00000000       0.00000000       0.00000000       0.00000000       0.00000000
H        4.20923268       4.05033604      22.29121606        2       1.00000000       0.00000000       0.00000000       0.00000000       0.00000000       0.00000000       0.00000000
H        0.00000000       0.00000000      24.58243212        1       1.00000000       0.00000000       0.00000000       0.00000000       0.00000000       0.00000000       0.00000000
H        2.80615512       0.00000000      24.58243212        1       1.00000000       0.00000000       0.00000000       0.00000000       0.00000000       0.00000000       0.00000000
H        1.40307756       2.43020162      24.58243212        1       1.00000000       0.00000000       0.00000000       0.00000000       0.00000000       0.00000000       0.00000000
H        4.20923268       2.43020162      24.58243212        1       1.00000000       0.00000000       0.00000000       0.00000000       0.00000000       0.00000000       0.00000000
H        0.00625731       3.22099677      15.56586724        0       1.00000000      -0.00000134       0.00000038       0.00000115      -0.00000113       0.00000010      -0.00000330
H        2.79584399       1.63473876      17.76898276        0       1.00000000       0.00000065      -0.00000001       0.00000004       0.00000284      -0.00000169      -0.00000341
H        1.41338822       4.06494049      17.76898234        0       1.00000000       0.00000024       0.00000025       0.00000068       0.00000001       0.00000110       0.00000128
H        0.00379236       1.60711578      17.79330518        0       1.00000000      -0.00000020       0.00000026       0.00000017      -0.00000041      -0.00000474       0.00000124
H        4.20544042       4.03731747      17.79330481        0       1.00000000      -0.00000003      -0.00000138      -0.00000032      -0.00000095       0.00000233      -0.00000056
H        4.20297526       0.79079561      15.56586738        0       1.00000000       0.00000063      -0.00000165      -0.00000146       0.00000026      -0.00000029       0.00000150
18
Lattice="5.612310241546866 0.0 0.0 0.0 4.860403243099165 0.0 0.0 0.0 44.58243212332868" Properties=species:S:1:pos:R:3:tags:I:1:masses:R:1:momenta:R:3:forces:R:3 KEmax=23.26679191048647 iter=119999 volume=1216.1236359717223 ns_energy=-11.647137732069014 last_walked_iter_clone=119999 energy=-11.647137732076597 stress="0.0045409866974691696 -1.4103613869148217e-09 -4.116174614143776e-10 -1.4103613869148217e-09 0.004537136097543798 9.498120140932297e-09 -4.116174614143776e-10 9.498120140932297e-09 0.0023242319579501055" pbc="T T T"
H        1.40307756       0.81006721      20.00000000        3       1.00000000       0.00000000       0.00000000       0.00000000       0.00000000       0.00000000       0.00000000
H        4.20923268       0.81006721      20.00000000        3       1.00000000       0.00000000       0.00000000       0.00000000       0.00000000       0.00000000       0.00000000
H        0.00000000       3.24026883      20.00000000        3       1.00000000       0.00000000       0.00000000       0.00000000       0.00000000       0.00000000       0.00000000
H        2.80615512       3.24026883      20.00000000        3       1.00000000       0.00000000       0.00000000       0.00000000       0.00000000       0.00000000       0.00000000
H        0.00000000       1.62013441      22.29121606        2       1.00000000       0.00000000       0.00000000       0.00000000       0.00000000       0.00000000       0.00000000
H        2.80615512       1.62013441      22.29121606        2       1.00000000       0.00000000       0.00000000       0.00000000       0.00000000       0.00000000       0.00000000
H        1.40307756       4.05033604      22.29121606        2       1.00000000       0.00000000       0.00000000       0.00000000       0.00000000       0.00000000       0.00000000
H        4.20923268       4.05033604      22.29121606        2       1.00000000       0.00000000       0.00000000       0.00000000       0.00000000       0.00000000       0.00000000
H        0.00000000       0.00000000      24.58243212        1       1.00000000       0.00000000       0.00000000       0.00000000       0.00000000       0.00000000       0.00000000
H        2.80615512       0.00000000      24.58243212        1       1.00000000       0.00000000       0.00000000       0.00000000       0.00000000       0.00000000       0.00000000
H        1.40307756       2.43020162      24.58243212        1       1.00000000       0.00000000       0.00000000       0.00000000       0.00000000       0.00000000       0.00000000
H        4.20923268       2.43020162      24.58243212        1       1.00000000       0.00000000       0.00000000       0.00000000       0.00000000       0.00000000       0.00000000
H        0.00626029       3.22099689      15.56586706        0       1.00000000      -0.00000128      -0.00000015       0.00000108      -0.00000113       0.00000010      -0.00000330
H        2.79584370       1.63473824      17.76898227        0       1.00000000       0.00000212       0.00000081       0.00000073       0.00000284      -0.00000169      -0.00000341
H        1.41338867       4.06494035      17.76898327        0       1.00000000      -0.00000118       0.00000062       0.00000037       0.00000001       0.00000110       0.00000128
H        0.00379152       1.60711605      17.79330479        0       1.00000000      -0.00000044      -0.00000045      -0.00000048      -0.00000041      -0.00000474       0.00000124
H        4.20543996       4.03731632      17.79330405        0       1.00000000      -0.00000017      -0.00000090       0.00000181      -0.00000095       0.00000233      -0.00000056
H        4.20297508       0.79079474      15.56586686        0       1.00000000       0.00000065       0.00000142      -0.00000050       0.00000026      -0.00000029       0.00000150
18
Lattice="5.612310241546866 0.0 0.0 0.0 4.860403243099165 0.0 0.0 0.0 44.58243212332868" Properties=species:S:1:pos:R:3:tags:I:1:masses:R:1:momenta:R:3:forces:R:3 KEmax=23.26679191048647 iter=119999 volume=1216.1236359717223 ns_energy=-11.647137732079168 last_walked_iter_clone=118925 energy=-11.647137732076597 stress="0.0045409866974691696 -1.4103613869148217e-09 -4.116174614143776e-10 -1.4103613869148217e-09 0.004537136097543798 9.498120140932297e-09 -4.116174614143776e-10 9.498120140932297e-09 0.0023242319579501055" pbc="T T T"
H        1.40307756       0.81006721      20.00000000        3       1.00000000       0.00000000       0.00000000       0.00000000       0.00000000       0.00000000       0.00000000
H        4.20923268       0.81006721      20.00000000        3       1.00000000       0.00000000       0.00000000       0.00000000       0.00000000       0.00000000       0.00000000
H        0.00000000       3.24026883      20.00000000        3       1.00000000       0.00000000       0.00000000       0.00000000       0.00000000       0.00000000       0.00000000
H        2.80615512       3.24026883      20.00000000        3       1.00000000       0.00000000       0.00000000       0.00000000       0.00000000       0.00000000       0.00000000
H        0.00000000       1.62013441      22.29121606        2       1.00000000       0.00000000       0.00000000       0.00000000       0.00000000       0.00000000       0.00000000
H        2.80615512       1.62013441      22.29121606        2       1.00000000       0.00000000       0.00000000       0.00000000       0.00000000       0.00000000       0.00000000
H        1.40307756       4.05033604      22.29121606        2       1.00000000       0.00000000       0.00000000       0.00000000       0.00000000       0.00000000       0.00000000
H        4.20923268       4.05033604      22.29121606        2       1.00000000       0.00000000       0.00000000       0.00000000       0.00000000       0.00000000       0.00000000
H        0.00000000       0.00000000      24.58243212        1       1.00000000       0.00000000       0.00000000       0.00000000       0.00000000       0.00000000       0.00000000
H        2.80615512       0.00000000      24.58243212        1       1.00000000       0.00000000       0.00000000       0.00000000       0.00000000       0.00000000       0.00000000
H        1.40307756       2.43020162      24.58243212        1       1.00000000       0.00000000       0.00000000       0.00000000       0.00000000       0.00000000       0.00000000
H        4.20923268       2.43020162      24.58243212        1       1.00000000       0.00000000       0.00000000       0.00000000       0.00000000       0.00000000       0.00000000
H        0.00625730       3.22099881      15.56586711        0       1.00000000       0.00000097      -0.00000043       0.00000071      -0.00000113       0.00000010      -0.00000330
H        2.79584352       1.63473983      17.76898239        0       1.00000000      -0.00000069       0.00000125      -0.00000133       0.00000284      -0.00000169      -0.00000341
H        1.41338771       4.06494116      17.76898286        0       1.00000000       0.00000011      -0.00000036      -0.00000024       0.00000001       0.00000110       0.00000128
H        0.00379135       1.60711580      17.79330447        0       1.00000000       0.00000075      -0.00000002       0.00000025      -0.00000041      -0.00000474       0.00000124
H        4.20543995       4.03731779      17.79330499        0       1.00000000       0.00000068      -0.00000028      -0.00000033      -0.00000095       0.00000233      -0.00000056
H        4.20297502       0.79079627      15.56586733        0       1.00000000       0.00000042       0.00000066       0.00000094       0.00000026      -0.00000029       0.00000150
18
Lattice="5.612310241546866 0.0 0.0 0.0 4.860403243099165 0.0 0.0 0.0 44.58243212332868" Properties=species:S:1:pos:R:3:tags:I:1:masses:R:1:momenta:R:3:forces:R:3 KEmax=23.26679191048647 iter=119999 volume=1216.1236359717223 ns_energy=-11.647137732079647 last_walked_iter_clone=118473 energy=-11.647137732076597 stress="0.0045409866974691696 -1.4103613869148217e-09 -4.116174614143776e-10 -1.4103613869148217e-09 0.004537136097543798 9.498120140932297e-09 -4.116174614143776e-10 9.498120140932297e-09 0.0023242319579501055" pbc="T T T"
H        1.40307756       0.81006721      20.00000000        3       1.00000000       0.00000000       0.00000000       0.00000000       0.00000000       0.00000000       0.00000000
H        4.20923268       0.81006721      20.00000000        3       1.00000000       0.00000000       0.00000000       0.00000000       0.00000000       0.00000000       0.00000000
H        0.00000000       3.24026883      20.00000000        3       1.00000000       0.00000000       0.00000000       0.00000000       0.00000000       0.00000000       0.00000000
H        2.80615512       3.24026883      20.00000000        3       1.00000000       0.00000000       0.00000000       0.00000000       0.00000000       0.00000000       0.00000000
H        0.00000000       1.62013441      22.29121606        2       1.00000000       0.00000000       0.00000000       0.00000000       0.00000000       0.00000000       0.00000000
H        2.80615512       1.62013441      22.29121606        2       1.00000000       0.00000000       0.00000000       0.00000000       0.00000000       0.00000000       0.00000000
H        1.40307756       4.05033604      22.29121606        2       1.00000000       0.00000000       0.00000000       0.00000000       0.00000000       0.00000000       0.00000000
H        4.20923268       4.05033604      22.29121606        2       1.00000000       0.00000000       0.00000000       0.00000000       0.00000000       0.00000000       0.00000000
H        0.00000000       0.00000000      24.58243212        1       1.00000000       0.00000000       0.00000000       0.00000000       0.00000000       0.00000000       0.00000000
H        2.80615512       0.00000000      24.58243212        1       1.00000000       0.00000000       0.00000000       0.00000000       0.00000000       0.00000000       0.00000000
H        1.40307756       2.43020162      24.58243212        1       1.00000000       0.00000000       0.00000000       0.00000000       0.00000000       0.00000000       0.00000000
H        4.20923268       2.43020162      24.58243212        1       1.00000000       0.00000000       0.00000000       0.00000000       0.00000000       0.00000000       0.00000000
H        0.00625780       3.22099724      15.56586785        0       1.00000000      -0.00000004       0.00000026      -0.00000103      -0.00000113       0.00000010      -0.00000330
H        2.79584434       1.63473917      17.76898306        0       1.00000000      -0.00000171      -0.00000065       0.00000104       0.00000284      -0.00000169      -0.00000341
H        1.41338896       4.06494083      17.76898250        0       1.00000000       0.00000059      -0.00000050       0.00000071       0.00000001       0.00000110       0.00000128
H        0.00379228       1.60711560      17.79330545        0       1.00000000       0.00000010       0.00000014       0.00000078      -0.00000041      -0.00000474       0.00000124
H        4.20544062       4.03731708      17.79330532        0       1.00000000      -0.00000102      -0.00000085       0.00000033      -0.00000095       0.00000233      -0.00000056
H        4.20297452       0.79079573      15.56586821        0       1.00000000       0.00000017       0.00000062      -0.00000047       0.00000026      -0.00000029       0.00000150
18
Lattice="5.612310241546866 0.0 0.0 0.0 4.860403243099165 0.0 0.0 0.0 44.58243212332868" Properties=species:S:1:pos:R:3:tags:I:1:masses:R:1:momenta:R:3:forces:R:3 KEmax=23.26679191048647 iter=119999 volume=1216.1236359717223 ns_energy=-11.647137732079111 last_walked_iter_clone=118777 energy=-11.647137732076597 stress="0.0045409866974691696 -1.4103613869148217e-09 -4.116174614143776e-10 -1.4103613869148217e-09 0.004537136097543798 9.498120140932297e-09 -4.116174614143776e-10 9.498120140932297e-09 0.0023242319579501055" pbc="T T T"
H        1.40307756       0.81006721      20.00000000        3       1.00000000       0.00000000       0.00000000       0.00000000       0.00000000       0.00000000       0.00000000
H        4.20923268       0.81006721      20.00000000        3       1.00000000       0.00000000       0.00000000       0.00000000       0.00000000       0.00000000       0.00000000
H        0.00000000       3.24026883      20.00000000        3       1.00000000       0.00000000       0.00000000       0.00000000       0.00000000       0.00000000       0.00000000
H        2.80615512       3.24026883      20.00000000        3       1.00000000       0.00000000       0.00000000       0.00000000       0.00000000       0.00000000       0.00000000
H        0.00000000       1.62013441      22.29121606        2       1.00000000       0.00000000       0.00000000       0.00000000       0.00000000       0.00000000       0.00000000
H        2.80615512       1.62013441      22.29121606        2       1.00000000       0.00000000       0.00000000       0.00000000       0.00000000       0.00000000       0.00000000
H        1.40307756       4.05033604      22.29121606        2       1.00000000       0.00000000       0.00000000       0.00000000       0.00000000       0.00000000       0.00000000
H        4.20923268       4.05033604      22.29121606        2       1.00000000       0.00000000       0.00000000       0.00000000       0.00000000       0.00000000       0.00000000
H        0.00000000       0.00000000      24.58243212        1       1.00000000       0.00000000       0.00000000       0.00000000       0.00000000       0.00000000       0.00000000
H        2.80615512       0.00000000      24.58243212        1       1.00000000       0.00000000       0.00000000       0.00000000       0.00000000       0.00000000       0.00000000
H        1.40307756       2.43020162      24.58243212        1       1.00000000       0.00000000       0.00000000       0.00000000       0.00000000       0.00000000       0.00000000
H        4.20923268       2.43020162      24.58243212        1       1.00000000       0.00000000       0.00000000       0.00000000       0.00000000       0.00000000       0.00000000
H        0.00625773       3.22099722      15.56586711        0       1.00000000       0.00000133      -0.00000045      -0.00000039      -0.00000113       0.00000010      -0.00000330
H        2.79584383       1.63473888      17.76898221        0       1.00000000      -0.00000086       0.00000036      -0.00000090       0.00000284      -0.00000169      -0.00000341
H        1.41338863       4.06494037      17.76898249        0       1.00000000      -0.00000104       0.00000018      -0.00000029       0.00000001       0.00000110       0.00000128
H        0.00379171       1.60711529      17.79330523        0       1.00000000       0.00000117       0.00000022       0.00000017      -0.00000041      -0.00000474       0.00000124
H        4.20544076       4.03731698      17.79330503        0       1.00000000      -0.00000206      -0.00000043       0.00000055      -0.00000095       0.00000233      -0.00000056
H        4.20297588       0.79079580      15.56586758        0       1.00000000       0.00000030      -0.00000051      -0.00000000       0.00000026      -0.00000029       0.00000150
18
Lattice="5.612310241546866 0.0 0.0 0.0 4.860403243099165 0.0 0.0 0.0 44.58243212332868" Properties=species:S:1:pos:R:3:tags:I:1:masses:R:1:momenta:R:3:forces:R:3 KEmax=23.26679191048647 iter=119999 volume=1216.1236359717223 ns_energy=-11.647137732079166 last_walked_iter_clone=119319 energy=-11.647137732076597 stress="0.0045409866974691696 -1.4103613869148217e-09 -4.116174614143776e-10 -1.4103613869148217e-09 0.004537136097543798 9.498120140932297e-09 -4.116174614143776e-10 9.498120140932297e-09 0.0023242319579501055" pbc="T T T"
H        1.40307756       0.81006721      20.00000000        3       1.00000000       0.00000000       0.00000000       0.00000000       0.00000000       0.00000000       0.00000000
H        4.20923268       0.81006721      20.00000000        3       1.00000000       0.00000000       0.00000000       0.00000000       0.00000000       0.00000000       0.00000000
H        0.00000000       3.24026883      20.00000000        3       1.00000000       0.00000000       0.00000000       0.00000000       0.00000000       0.00000000       0.00000000
H        2.80615512       3.24026883      20.00000000        3       1.00000000       0.00000000       0.00000000       0.00000000       0.00000000       0.00000000       0.00000000
H        0.00000000       1.62013441      22.29121606        2       1.00000000       0.00000000       0.00000000       0.00000000       0.00000000       0.00000000       0.00000000
H        2.80615512       1.62013441      22.29121606        2       1.00000000       0.00000000       0.00000000       0.00000000       0.00000000       0.00000000       0.00000000
H        1.40307756       4.05033604      22.29121606        2       1.00000000       0.00000000       0.00000000       0.00000000       0.00000000       0.00000000       0.00000000
H        4.20923268       4.05033604      22.29121606        2       1.00000000       0.00000000       0.00000000       0.00000000       0.00000000       0.00000000       0.00000000
H        0.00000000       0.00000000      24.58243212        1       1.00000000       0.00000000       0.00000000       0.00000000       0.00000000       0.00000000       0.00000000
H        2.80615512       0.00000000      24.58243212        1       1.00000000       0.00000000       0.00000000       0.00000000       0.00000000       0.00000000       0.00000000
H        1.40307756       2.43020162      24.58243212        1       1.00000000       0.00000000       0.00000000       0.00000000       0.00000000       0.00000000       0.00000000
H        4.20923268       2.43020162      24.58243212        1       1.00000000       0.00000000       0.00000000       0.00000000       0.00000000       0.00000000       0.00000000
H        0.00625707       3.22099621      15.56586772        0       1.00000000       0.00000033       0.00000023       0.00000010      -0.00000113       0.00000010      -0.00000330
H        2.79584483       1.63473870      17.76898276        0       1.00000000      -0.00000023      -0.00000102      -0.00000011       0.00000284      -0.00000169      -0.00000341
H        1.41338950       4.06494050      17.76898263        0       1.00000000      -0.00000065       0.00000082      -0.00000153       0.00000001       0.00000110       0.00000128