19
Lattice="5.612310241546866 0.0 0.0 0.0 4.860403243099165 0.0 0.0 0.0 24.582432123328676" Properties=species:S:1:pos:R:3:tags:I:1:masses:R:1:momenta:R:3 KEmax=24.559391461069055 iter=99 volume=670.5618179858607 ns_energy=224.42465721044263 ns_P=0.0 config_n_global=99 ns_KE=7.664383246585886 pbc="T T T"
H        1.40307756       0.81006721      10.00000000        3       1.00000000       0.00000000       0.00000000       0.00000000
H        4.20923268       0.81006721      10.00000000        3       1.00000000       0.00000000       0.00000000       0.00000000
H        0.00000000       3.24026883      10.00000000        3       1.00000000       0.00000000       0.00000000       0.00000000
H        2.80615512       3.24026883      10.00000000        3       1.00000000       0.00000000       0.00000000       0.00000000
H        0.00000000       1.62013441      12.29121606        2       1.00000000       0.00000000       0.00000000       0.00000000
H        2.80615512       1.62013441      12.29121606        2       1.00000000       0.00000000       0.00000000       0.00000000
H        1.40307756       4.05033604      12.29121606        2       1.00000000       0.00000000       0.00000000       0.00000000
H        4.20923268       4.05033604      12.29121606        2       1.00000000       0.00000000       0.00000000       0.00000000
H        0.00000000       0.00000000      14.58243212        1       1.00000000       0.00000000       0.00000000       0.00000000
H        2.80615512       0.00000000      14.58243212        1       1.00000000       0.00000000       0.00000000       0.00000000
H        1.40307756       2.43020162      14.58243212        1       1.00000000       0.00000000       0.00000000       0.00000000
H        4.20923268       2.43020162      14.58243212        1       1.00000000       0.00000000       0.00000000       0.00000000
H        4.44870912       4.64444117      21.85043443        0       1.00000000       0.42489116      -0.28474127       1.41371478
H        4.01036552       3.17679266       6.85325007        0       1.00000000      -0.09738206      -0.93635345      -0.78295423
H        0.09700075       2.06969803       6.72112275        0       1.00000000      -0.19733663      -0.80184279       1.55005953
H        3.24369953       1.69113389       0.37064803        0       1.00000000       1.02660782      -0.09704164       0.43578995
H        1.80490902       4.61834805       4.89922333        0       1.00000000       0.40819598       1.05503547      -1.07353183
H        2.94617267       3.93250956       4.27287498        0       1.00000000       0.47105668      -1.48839855      -1.15721700
H        1.52269309       4.19489268      19.82079013        0       1.00000000       0.72665822      -0.65449434      -0.25789844
19
Lattice="5.612310241546866 0.0 0.0 0.0 4.860403243099165 0.0 0.0 0.0 24.582432123328676" Properties=species:S:1:pos:R:3:tags:I:1:masses:R:1:momenta:R:3 KEmax=24.559391461069055 iter=199 volume=670.5618179858607 ns_energy=16.06687226438956 last_walked_iter_clone=120 ns_P=0.0 config_n_global=199 ns_KE=23.049633627458828 pbc="T T T"
H        1.40307756       0.81006721      10.00000000        3       1.00000000       0.00000000       0.00000000       0.00000000
H        4.20923268       0.81006721      10.00000000        3       1.00000000       0.00000000       0.00000000       0.00000000
H        0.00000000       3.24026883      10.00000000        3       1.00000000       0.00000000       0.00000000       0.00000000
H        2.80615512       3.24026883      10.00000000        3       1.00000000       0.00000000       0.00000000       0.00000000
H        0.00000000       1.62013441      12.29121606        2       1.00000000       0.00000000       0.00000000       0.00000000
H        2.80615512       1.62013441      12.29121606        2       1.00000000       0.00000000       0.00000000       0.00000000
H        1.40307756       4.05033604      12.29121606        2       1.00000000       0.00000000       0.00000000       0.00000000
H        4.20923268       4.05033604      12.29121606        2       1.00000000       0.00000000       0.00000000       0.00000000
H        0.00000000       0.00000000      14.58243212        1       1.00000000       0.00000000       0.00000000       0.00000000
H        2.80615512       0.00000000      14.58243212        1       1.00000000       0.00000000       0.00000000       0.00000000
H        1.40307756       2.43020162      14.58243212        1       1.00000000       0.00000000       0.00000000       0.00000000
H        4.20923268       2.43020162      14.58243212        1       1.00000000       0.00000000       0.00000000       0.00000000
H        0.05929646       2.28613679       4.72661942        0       1.00000000      -0.39618479      -0.22634987       1.52894667
H        2.73066913       2.86464501      20.46107820        0       1.00000000      -0.49549895       3.64363397       2.08491078
H        5.38376283       0.61957808       7.62921803        0       1.00000000       1.78323033      -0.45939433      -0.37468058
H        1.75313721       1.11221939       6.96541809        0       1.00000000       0.59172631      -1.32089505      -0.98010888
H        2.57185824       3.17198539       7.75017605        0       1.00000000      -1.62098456       1.12482400       0.16934394
H        4.43639574       1.69542874      18.10605476        0       1.00000000       2.61812725       0.09785372       0.28042132
H        1.36304510       4.28548593       3.51978088        0       1.00000000       2.75266890       0.79264683      -0.16829015
19
Lattice="5.612310241546866 0.0 0.0 0.0 4.860403243099165 0.0 0.0 0.0 24.582432123328676" Properties=species:S:1:pos:R:3:tags:I:1:masses:R:1:momenta:R:3 KEmax=24.559391461069055 iter=299 volume=670.5618179858607 ns_energy=13.811421599960124 last_walked_iter_clone=216 ns_P=0.0 config_n_global=299 ns_KE=22.158384294224213 pbc="T T T"
H        1.40307756       0.81006721      10.00000000        3       1.00000000       0.00000000       0.00000000       0.00000000
H        4.20923268       0.81006721      10.00000000        3       1.00000000       0.00000000       0.00000000       0.00000000
H        0.00000000       3.24026883      10.00000000        3       1.00000000       0.00000000       0.00000000       0.00000000
H        2.80615512       3.24026883      10.00000000        3       1.00000000       0.00000000       0.00000000       0.00000000
H        0.00000000       1.62013441      12.29121606        2       1.00000000       0.00000000       0.00000000       0.00000000
H        2.80615512       1.62013441      12.29121606        2       1.00000000       0.00000000       0.00000000       0.00000000
H        1.40307756       4.05033604      12.29121606        2       1.00000000       0.00000000       0.00000000       0.00000000
H        4.20923268       4.05033604      12.29121606        2       1.00000000       0.00000000       0.00000000       0.00000000
H        0.00000000       0.00000000      14.58243212        1       1.00000000       0.00000000       0.00000000       0.00000000
H        2.80615512       0.00000000      14.58243212        1       1.00000000       0.00000000       0.00000000       0.00000000
H        1.40307756       2.43020162      14.58243212        1       1.00000000       0.00000000       0.00000000       0.00000000
H        4.20923268       2.43020162      14.58243212        1       1.00000000       0.00000000       0.00000000       0.00000000
H        0.94832166       2.51719596      19.95188483        0       1.00000000      -1.15021577      -0.82379030      -1.70972091
H        3.90995303       2.80484700      20.76148529        0       1.00000000      -1.76394636      -1.89338779       2.32916847
H        1.92011848       2.05672182      22.11586208        0       1.00000000       2.14655141       0.97131159       0.48119151
H        1.69512422       1.75402163       4.48776305        0       1.00000000      -1.22980899      -1.95632253       2.51775865
H        2.57788767       0.07566357      17.14651392        0       1.00000000      -2.11055898       1.67992788       1.00340740
H        4.58557510       1.86497808      23.47358281        0       1.00000000      -0.16999158       0.14510885      -0.19556906
H        0.32541299       1.50782953       2.37787535        0       1.00000000       0.32433009       0.80319537      -0.82896215
19
Lattice="5.612310241546866 0.0 0.0 0.0 4.860403243099165 0.0 0.0 0.0 24.582432123328676" Properties=species:S:1:pos:R:3:tags:I:1:masses:R:1:momenta:R:3 KEmax=24.559391461069055 iter=399 volume=670.5618179858607 ns_energy=12.365934389180042 last_walked_iter_clone=292 ns_P=0.0 config_n_global=399 ns_KE=20.22017757303766 pbc="T T T"
H        1.40307756       0.81006721      10.00000000        3       1.00000000       0.00000000       0.00000000       0.00000000
H        4.20923268       0.81006721      10.00000000        3       1.00000000       0.00000000       0.00000000       0.00000000
H        0.00000000       3.24026883      10.00000000        3       1.00000000       0.00000000       0.00000000       0.00000000
H        2.80615512       3.24026883      10.00000000        3       1.00000000       0.00000000       0.00000000       0.00000000
H        0.00000000       1.62013441      12.29121606        2       1.00000000       0.00000000       0.00000000       0.00000000
H        2.80615512       1.62013441      12.29121606        2       1.00000000       0.00000000       0.00000000       0.00000000
H        1.40307756       4.05033604      12.29121606        2       1.00000000       0.00000000       0.00000000       0.00000000
H        4.20923268       4.05033604      12.29121606        2       1.00000000       0.00000000       0.00000000       0.00000000
H        0.00000000       0.00000000      14.58243212        1       1.00000000       0.00000000       0.00000000       0.00000000
H        2.80615512       0.00000000      14.58243212        1       1.00000000       0.00000000       0.00000000       0.00000000
H        1.40307756       2.43020162      14.58243212        1       1.00000000       0.00000000       0.00000000       0.00000000
H        4.20923268       2.43020162      14.58243212        1       1.00000000       0.00000000       0.00000000       0.00000000
H        4.55571395       0.55926957      19.70646360        0       1.00000000      -1.29576597       2.72726463       2.33762994
H        3.61286652       3.29372911       0.09433819        0       1.00000000      -0.02200390       0.76680142      -0.15560691
H        1.12710745       0.37508159       6.94858482        0       1.00000000      -0.94041779       0.67367476       0.79149062
H        4.67593473       3.72765501       4.76249310        0       1.00000000       0.10480537       1.35180562       2.20127585
H        2.66276429       3.73637511      16.47656090        0       1.00000000       0.54239638       0.02599787      -2.00890961
H        1.15243974       2.26696634      17.81670975        0       1.00000000      -2.48060535      -0.11865930      -0.66454758
H        1.16073209       1.39025178       4.10272941        0       1.00000000       0.98345322      -2.14260692      -0.31603830
19
Lattice="5.612310241546866 0.0 0.0 0.0 4.860403243099165 0.0 0.0 0.0 24.582432123328676" Properties=species:S:1:pos:R:3:tags:I:1:masses:R:1:momenta:R:3 KEmax=24.559391461069055 iter=499 volume=670.5618179858607 ns_energy=10.973304539546394 last_walked_iter_clone=437 ns_P=0.0 config_n_global=499 ns_KE=19.532295001702266 pbc="T T T"
H        1.40307756       0.81006721      10.00000000        3       1.00000000       0.00000000       0.00000000       0.00000000
H        4.20923268       0.81006721      10.00000000        3       1.00000000       0.00000000       0.00000000       0.00000000
H        0.00000000       3.24026883      10.00000000        3       1.00000000       0.00000000       0.00000000       0.00000000
H        2.80615512       3.24026883      10.00000000        3       1.00000000       0.00000000       0.00000000       0.00000000
H        0.00000000       1.62013441      12.29121606        2       1.00000000       0.00000000       0.00000000       0.00000000
H        2.80615512       1.62013441      12.29121606        2       1.00000000       0.00000000       0.00000000       0.00000000
H        1.40307756       4.05033604      12.29121606        2       1.00000000       0.00000000       0.00000000       0.00000000
H        4.20923268       4.05033604      12.29121606        2       1.00000000       0.00000000       0.00000000       0.00000000
H        0.00000000       0.00000000      14.58243212        1       1.00000000       0.00000000       0.00000000       0.00000000
H        2.80615512       0.00000000      14.58243212        1       1.00000000       0.00000000       0.00000000       0.00000000
H        1.40307756       2.43020162      14.58243212        1       1.00000000       0.00000000       0.00000000       0.00000000
H        4.20923268       2.43020162      14.58243212        1       1.00000000       0.00000000       0.00000000       0.00000000
H        3.63869613       1.26584234      16.67815957        0       1.00000000       1.06235851      -1.25650723       2.86885134
H        4.84142186      -0.33453863       1.16086696        0       1.00000000       0.56811746      -2.14345941      -1.98251029
H        4.76821564       3.28440018      23.14209012        0       1.00000000      -0.58016779       2.77318449       2.23088920
H        2.05574637       0.35957364      18.64516683        0       1.00000000       0.94135012      -0.11113130       1.29090120
H        1.10682191       3.49180232       5.74320971        0       1.00000000      -0.28238944       0.53473461       0.48939719
H        1.52576777       3.43997966      24.15245716        0       1.00000000      -1.00606253      -0.23312084       0.47720978
H        3.01265853       1.53376334       5.28665473        0       1.00000000       0.62074006       0.52081915       1.07443567
19
Lattice="5.612310241546866 0.0 0.0 0.0 4.860403243099165 0.0 0.0 0.0 24.582432123328676" Properties=species:S:1:pos:R:3:tags:I:1:masses:R:1:momenta:R:3 KEmax=24.559391461069055 iter=599 volume=670.5618179858607 ns_energy=9.554995848398315 last_walked_iter_clone=557 ns_P=0.0 config_n_global=599 ns_KE=17.683572192890267 pbc="T T T"
H        1.40307756       0.81006721      10.00000000        3       1.00000000       0.00000000       0.00000000       0.00000000
H        4.20923268       0.81006721      10.00000000        3       1.00000000       0.00000000       0.00000000       0.00000000
H        0.00000000       3.24026883      10.00000000        3       1.00000000       0.00000000       0.00000000       0.00000000
H        2.80615512       3.24026883      10.00000000        3       1.00000000       0.00000000       0.00000000       0.00000000
H        0.00000000       1.62013441      12.29121606        2       1.00000000       0.00000000       0.00000000       0.00000000
H        2.80615512       1.62013441      12.29121606        2       1.00000000       0.00000000       0.00000000       0.00000000
H        1.40307756       4.05033604      12.29121606        2       1.00000000       0.00000000       0.00000000       0.00000000
H        4.20923268       4.05033604      12.29121606        2       1.00000000       0.00000000       0.00000000       0.00000000
H        0.00000000       0.00000000      14.58243212        1       1.00000000       0.00000000       0.00000000       0.00000000
H        2.80615512       0.00000000      14.58243212        1       1.00000000       0.00000000       0.00000000       0.00000000
H        1.40307756       2.43020162      14.58243212        1       1.00000000       0.00000000       0.00000000       0.00000000
H        4.20923268       2.43020162      14.58243212        1       1.00000000       0.00000000       0.00000000       0.00000000
H        2.77384930       2.45685079      24.07030884        0       1.00000000       2.14918039      -1.61901452       0.34399789
H        2.80356228       0.36821749      21.20061333        0       1.00000000      -0.45814020      -0.92664576       1.63943651
H        2.74872049       3.62205258      19.25530961        0       1.00000000      -1.57250231      -0.85313900       2.87651830
H        5.22322493       4.40636191      20.95411764        0       1.00000000      -2.51178592      -0.01930925      -0.08870270
H        1.36937054       3.57671273       8.16116196        0       1.00000000      -0.08124236      -0.35577933       0.06054218
H        5.05356788       1.17807855       7.11362291        0       1.00000000      -1.52902813       0.19434739      -1.08627458
H        2.32657286       1.78980767       2.40397724        0       1.00000000      -0.17366521       0.87161352      -1.40628132
19
Lattice="5.612310241546866 0.0 0.0 0.0 4.860403243099165 0.0 0.0 0.0 24.582432123328676" Properties=species:S:1:pos:R:3:tags:I:1:masses:R:1:momenta:R:3 KEmax=24.559391461069055 iter=699 volume=670.5618179858607 ns_energy=8.350917122510836 last_walked_iter_clone=675 ns_P=0.0 config_n_global=699 ns_KE=4.044008963304568 pbc="T T T"
H        1.40307756       0.81006721      10.00000000        3       1.00000000       0.00000000       0.00000000       0.00000000
H        4.20923268       0.81006721      10.00000000        3       1.00000000       0.00000000       0.00000000       0.00000000
H        0.00000000       3.24026883      10.00000000        3       1.00000000       0.00000000       0.00000000       0.00000000
H        2.80615512       3.24026883      10.00000000        3       1.00000000       0.00000000       0.00000000       0.00000000
H        0.00000000       1.62013441      12.29121606        2       1.00000000       0.00000000       0.00000000       0.00000000
H        2.80615512       1.62013441      12.29121606        2       1.00000000       0.00000000       0.00000000       0.00000000
H        1.40307756       4.05033604      12.29121606        2       1.00000000       0.00000000       0.00000000       0.00000000
H        4.20923268       4.05033604      12.29121606        2       1.00000000       0.00000000       0.00000000       0.00000000
H        0.00000000       0.00000000      14.58243212        1       1.00000000       0.00000000       0.00000000       0.00000000
H        2.80615512       0.00000000      14.58243212        1       1.00000000       0.00000000       0.00000000       0.00000000
H        1.40307756       2.43020162      14.58243212        1       1.00000000       0.00000000       0.00000000       0.00000000
H        4.20923268       2.43020162      14.58243212        1       1.00000000       0.00000000       0.00000000       0.00000000
H        5.24618574       4.60285464      17.74705966        0       1.00000000      -0.50624468      -0.65256785       0.73429834
H        5.25948604       4.35568581       2.78395849        0       1.00000000      -0.25224103      -0.61811022       0.64824427
H        5.39111608       1.68462409       1.70769935        0       1.00000000      -0.34703246      -0.62432604       1.12116868
H        1.00005506       1.88433021      24.31381944        0       1.00000000      -0.02859156       0.24954404      -0.45298322
H        0.74309783       0.66710016       3.71215640        0       1.00000000      -1.14683601      -0.78989191      -0.06896557
H        2.90481365       4.18739253       2.35119201        0       1.00000000      -0.96779529       0.49087339       0.51943192
H        4.92221776       2.33009353      21.52666632        0       1.00000000      -0.53308950      -0.44282449      -0.30607446
19
Lattice="5.612310241546866 0.0 0.0 0.0 4.860403243099165 0.0 0.0 0.0 24.582432123328676" Properties=species:S:1:pos:R:3:tags:I:1:masses:R:1:momenta:R:3 KEmax=24.559391461069055 iter=799 volume=670.5618179858607 ns_energy=7.276780833767888 last_walked_iter_clone=695 ns_P=0.0 config_n_global=799 ns_KE=15.29657746162575 pbc="T T T"
H        1.40307756       0.81006721      10.00000000        3       1.00000000       0.00000000       0.00000000       0.00000000
H        4.20923268       0.81006721      10.00000000        3       1.00000000       0.00000000       0.00000000       0.00000000
H        0.00000000       3.24026883      10.00000000        3       1.00000000       0.00000000       0.00000000       0.00000000
H        2.80615512       3.24026883      10.00000000        3       1.00000000       0.00000000       0.00000000       0.00000000
H        0.00000000       1.62013441      12.29121606        2       1.00000000       0.00000000       0.00000000       0.00000000
H        2.80615512       1.62013441      12.29121606        2       1.00000000       0.00000000       0.00000000       0.00000000
H        1.40307756       4.05033604      12.29121606        2       1.00000000       0.00000000       0.00000000       0.00000000
H        4.20923268       4.05033604      12.29121606        2       1.00000000       0.00000000       0.00000000       0.00000000
H        0.00000000       0.00000000      14.58243212        1       1.00000000       0.00000000       0.00000000       0.00000000
H        2.80615512       0.00000000      14.58243212        1       1.00000000       0.00000000       0.00000000       0.00000000
H        1.40307756       2.43020162      14.58243212        1       1.00000000       0.00000000       0.00000000       0.00000000
H        4.20923268       2.43020162      14.58243212        1       1.00000000       0.00000000       0.00000000       0.00000000
H        4.83398145       1.56842433      16.56993109        0       1.00000000       1.47555497       0.60910448      -0.81924188
H        1.90318504       0.85809957       3.61024772        0       1.00000000       1.27981169       0.14425790       3.43744674
H        4.03243865       1.54041405       0.40496693        0       1.00000000      -0.63410078       0.59731082      -0.70236891
H        3.60997456       3.45994064      18.28489055        0       1.00000000      -0.86433310      -0.28771694       0.97664499
H        2.79383765       0.93251931      20.76854225        0       1.00000000       1.53542239      -0.22232243       2.08860582
H        1.44584780       2.10212879      23.82247788        0       1.00000000      -0.15612827       0.94473318      -1.45936809
H        2.52267599       3.30222241       5.58329671        0       1.00000000      -0.33962067       0.96521423      -0.01510262
19
Lattice="5.612310241546866 0.0 0.0 0.0 4.860403243099165 0.0 0.0 0.0 24.582432123328676" Properties=species:S:1:pos:R:3:tags:I:1:masses:R:1:momenta:R:3 KEmax=24.559391461069055 iter=899 volume=670.5618179858607 ns_energy=6.271839182443843 last_walked_iter_clone=812 ns_P=0.0 config_n_global=899 ns_KE=14.628234221474399 pbc="T T T"
H        1.40307756       0.81006721      10.00000000        3       1.00000000       0.00000000       0.00000000       0.00000000
H        4.20923268       0.81006721      10.00000000        3       1.00000000       0.00000000       0.00000000       0.00000000
H        0.00000000       3.24026883      10.00000000        3       1.00000000       0.00000000       0.00000000       0.00000000
H        2.80615512       3.24026883      10.00000000        3       1.00000000       0.00000000       0.00000000       0.00000000
H        0.00000000       1.62013441      12.29121606        2       1.00000000       0.00000000       0.00000000       0.00000000
H        2.80615512       1.62013441      12.29121606        2       1.00000000       0.00000000       0.00000000       0.00000000
H        1.40307756       4.05033604      12.29121606        2       1.00000000       0.00000000       0.00000000       0.00000000
H        4.20923268       4.05033604      12.29121606        2       1.00000000       0.00000000       0.00000000       0.00000000
H        0.00000000       0.00000000      14.58243212        1       1.00000000       0.00000000       0.00000000       0.00000000
H        2.80615512       0.00000000      14.58243212        1       1.00000000       0.00000000       0.00000000       0.00000000
H        1.40307756       2.43020162      14.58243212        1       1.00000000       0.00000000       0.00000000       0.00000000
H        4.20923268       2.43020162      14.58243212        1       1.00000000       0.00000000       0.00000000       0.00000000
H        1.01093914       3.82431912      19.82716387        0       1.00000000      -1.18612971       1.17870060      -0.08922481
H        2.51738135       4.26877133       7.93983389        0       1.00000000       1.06486392       2.28000632      -0.52481015
H        4.57266880       4.06643328       5.07007976        0       1.00000000       0.40451171       0.03257179       0.79187187
H        4.30153797       1.09601115       3.00533333        0       1.00000000      -2.25666447       0.35126414       0.12622943
H        4.78363135       2.49185255       7.96120994        0       1.00000000      -1.15980074       2.52022696       0.21390946
H        2.21290243       1.81491386      16.89221610        0       1.00000000       1.45795862      -0.80373656       1.00112273
H        0.50790509       0.41450534      17.50136243        0       1.00000000       1.00622101      -1.13356512       0.08426328
19
Lattice="5.612310241546866 0.0 0.0 0.0 4.860403243099165 0.0 0.0 0.0 24.582432123328676" Properties=species:S:1:pos:R:3:tags:I:1:masses:R:1:momenta:R:3 KEmax=24.559391461069055 iter=999 volume=670.5618179858607 ns_energy=5.302295750129232 last_walked_iter_clone=915 ns_P=0.0 config_n_global=999 ns_KE=13.948973640918068 pbc="T T T"
H        1.40307756       0.81006721      10.00000000        3       1.00000000       0.00000000       0.00000000       0.00000000
H        4.20923268       0.81006721      10.00000000        3       1.00000000       0.00000000       0.00000000       0.00000000
H        0.00000000       3.24026883      10.00000000        3       1.00000000       0.00000000       0.00000000       0.00000000
H        2.80615512       3.24026883      10.00000000        3       1.00000000       0.00000000       0.00000000       0.00000000
H        0.00000000       1.62013441      12.29121606        2       1.00000000       0.00000000       0.00000000       0.00000000
H        2.80615512       1.62013441      12.29121606        2       1.00000000       0.00000000       0.00000000       0.00000000
H        1.40307756       4.05033604      12.29121606        2       1.00000000       0.00000000       0.00000000       0.00000000
H        4.20923268       4.05033604      12.29121606        2       1.00000000       0.00000000       0.00000000       0.00000000
H        0.00000000       0.00000000      14.58243212        1       1.00000000       0.00000000       0.00000000       0.00000000
H        2.80615512       0.00000000      14.58243212        1       1.00000000       0.00000000       0.00000000       0.00000000
H        1.40307756       2.43020162      14.58243212        1       1.00000000       0.00000000       0.00000000       0.00000000
H        4.20923268       2.43020162      14.58243212        1       1.00000000       0.00000000       0.00000000       0.00000000
H        1.52131324       1.21526938       4.87117242        0       1.00000000       0.38788365      -0.00351801      -1.84064407
H        2.34650435       0.71992361       1.80851446        0       1.00000000      -1.02509932      -1.26659469      -0.28240382
H        2.54930078       3.13405716       7.06871582        0       1.00000000      -3.38103636      -0.18724320       0.95471518
H        2.91991202       4.09204267      16.96375726        0       1.00000000      -0.67051256       1.29867298      -0.34274666
H        0.76651640       4.75406567      20.48534266        0       1.00000000       0.14509920      -0.02826188      -0.15884792
H        5.66691716       3.83183023       5.40478100        0       1.00000000       1.58134765      -1.95502578      -0.74650285
H        0.69887851       1.69009023       0.22359538        0       1.00000000       0.12267020       0.01760679      -0.22496731
19
Lattice="5.612310241546866 0.0 0.0 0.0 4.860403243099165 0.0 0.0 0.0 24.582432123328676" Properties=species:S:1:pos:R:3:tags:I:1:masses:R:1:momenta:R:3 KEmax=24.559391461069055 iter=1099 volume=670.5618179858607 ns_energy=4.400882039529873 last_walked_iter_clone=942 ns_P=0.0 config_n_global=1099 ns_KE=12.861944884038996 pbc="T T T"
H        1.40307756       0.81006721      10.00000000        3       1.00000000       0.00000000       0.00000000       0.00000000
H        4.20923268       0.81006721      10.00000000        3       1.00000000       0.00000000       0.00000000       0.00000000
H        0.00000000       3.24026883      10.00000000        3       1.00000000       0.00000000       0.00000000       0.00000000
H        2.80615512       3.24026883      10.00000000        3       1.00000000       0.00000000       0.00000000       0.00000000
H        0.00000000       1.62013441      12.29121606        2       1.00000000       0.00000000       0.00000000       0.00000000
H        2.80615512       1.62013441      12.29121606        2       1.00000000       0.00000000       0.00000000       0.00000000
H        1.40307756       4.05033604      12.29121606        2       1.00000000       0.00000000       0.00000000       0.00000000
H        4.20923268       4.05033604      12.29121606        2       1.00000000       0.00000000       0.00000000       0.00000000
H        0.00000000       0.00000000      14.58243212        1       1.00000000       0.00000000       0.00000000       0.00000000
H        2.80615512       0.00000000      14.58243212        1       1.00000000       0.00000000       0.00000000       0.00000000
H        1.40307756       2.43020162      14.58243212        1       1.00000000       0.00000000       0.00000000       0.00000000