19
Lattice="5.612310241546866 0.0 0.0 0.0 4.860403243099165 0.0 0.0 0.0 24.582432123328676" Properties=species:S:1:pos:R:3:tags:I:1:masses:R:1:momenta:R:3:forces:R:3 KEmax=24.559391461069055 iter=59964 volume=670.5618179858607 ns_energy=-12.534048547470357 last_walked_iter_clone=59945 energy=-12.534048786356482 stress="0.008708551311470192 6.74693119011604e-07 6.328809739666908e-07 6.74693119011604e-07 0.008746521698970923 2.0665884478185079e-07 6.328809739666908e-07 2.0665884478185079e-07 0.004264173193029642" pbc="T T T"
H        1.40307756       0.81006721      10.00000000        3       1.00000000       0.00000000       0.00000000       0.00000000       0.00000000       0.00000000       0.00000000
H        4.20923268       0.81006721      10.00000000        3       1.00000000       0.00000000       0.00000000       0.00000000       0.00000000       0.00000000       0.00000000
H        0.00000000       3.24026883      10.00000000        3       1.00000000       0.00000000       0.00000000       0.00000000       0.00000000       0.00000000       0.00000000
H        2.80615512       3.24026883      10.00000000        3       1.00000000       0.00000000       0.00000000       0.00000000       0.00000000       0.00000000       0.00000000
H        0.00000000       1.62013441      12.29121606        2       1.00000000       0.00000000       0.00000000       0.00000000       0.00000000       0.00000000       0.00000000
H        2.80615512       1.62013441      12.29121606        2       1.00000000       0.00000000       0.00000000       0.00000000       0.00000000       0.00000000       0.00000000
H        1.40307756       4.05033604      12.29121606        2       1.00000000       0.00000000       0.00000000       0.00000000       0.00000000       0.00000000       0.00000000
H        4.20923268       4.05033604      12.29121606        2       1.00000000       0.00000000       0.00000000       0.00000000       0.00000000       0.00000000       0.00000000
H        0.00000000       0.00000000      14.58243212        1       1.00000000       0.00000000       0.00000000       0.00000000       0.00000000       0.00000000       0.00000000
H        2.80615512       0.00000000      14.58243212        1       1.00000000       0.00000000       0.00000000       0.00000000       0.00000000       0.00000000       0.00000000
H        1.40307756       2.43020162      14.58243212        1       1.00000000       0.00000000       0.00000000       0.00000000       0.00000000       0.00000000       0.00000000
H        4.20923268       2.43020162      14.58243212        1       1.00000000       0.00000000       0.00000000       0.00000000       0.00000000       0.00000000       0.00000000
H        1.40308380       0.80210438      16.78189608        0       1.00000000      -0.00002531      -0.00008747      -0.00009347      -0.00001082       0.00010831      -0.00048663
H        5.60492041       3.23650965      16.80090476        0       1.00000000       0.00051203       0.00005457      -0.00010158       0.00044509       0.00016315       0.00061687
H        5.61048523       0.00057197      19.01824844        0       1.00000000      -0.00001252       0.00022699       0.00024111      -0.00004715      -0.00029540       0.00021647
H        4.20929999       0.82607088      16.79890158        0       1.00000000      -0.00006999       0.00018072       0.00013574      -0.00047181      -0.00040682      -0.00023930
H        1.40319254       2.42640055      19.01637629        0       1.00000000      -0.00005479      -0.00001823       0.00012200      -0.00024450       0.00031495      -0.00040595
H        2.80851045       0.00057512      19.01815482        0       1.00000000      -0.00004617      -0.00016835       0.00008467       0.00042638      -0.00020776       0.00013252
H        2.81373981       3.23650706      16.80093513        0       1.00000000       0.00031118      -0.00003801      -0.00000357      -0.00042301       0.00044930       0.00042214
19
Lattice="5.612310241546866 0.0 0.0 0.0 4.860403243099165 0.0 0.0 0.0 24.582432123328676" Properties=species:S:1:pos:R:3:tags:I:1:masses:R:1:momenta:R:3:forces:R:3 KEmax=24.559391461069055 iter=59964 volume=670.5618179858607 ns_energy=-12.534048515028848 last_walked_iter_clone=59818 energy=-12.534048786356482 stress="0.008708551311470192 6.74693119011604e-07 6.328809739666908e-07 6.74693119011604e-07 0.008746521698970923 2.0665884478185079e-07 6.328809739666908e-07 2.0665884478185079e-07 0.004264173193029642" pbc="T T T"
H        1.40307756       0.81006721      10.00000000        3       1.00000000       0.00000000       0.00000000       0.00000000       0.00000000       0.00000000       0.00000000
H        4.20923268       0.81006721      10.00000000        3       1.00000000       0.00000000       0.00000000       0.00000000       0.00000000       0.00000000       0.00000000
H        0.00000000       3.24026883      10.00000000        3       1.00000000       0.00000000       0.00000000       0.00000000       0.00000000       0.00000000       0.00000000
H        2.80615512       3.24026883      10.00000000        3       1.00000000       0.00000000       0.00000000       0.00000000       0.00000000       0.00000000       0.00000000
H        0.00000000       1.62013441      12.29121606        2       1.00000000       0.00000000       0.00000000       0.00000000       0.00000000       0.00000000       0.00000000
H        2.80615512       1.62013441      12.29121606        2       1.00000000       0.00000000       0.00000000       0.00000000       0.00000000       0.00000000       0.00000000
H        1.40307756       4.05033604      12.29121606        2       1.00000000       0.00000000       0.00000000       0.00000000       0.00000000       0.00000000       0.00000000
H        4.20923268       4.05033604      12.29121606        2       1.00000000       0.00000000       0.00000000       0.00000000       0.00000000       0.00000000       0.00000000
H        0.00000000       0.00000000      14.58243212        1       1.00000000       0.00000000       0.00000000       0.00000000       0.00000000       0.00000000       0.00000000
H        2.80615512       0.00000000      14.58243212        1       1.00000000       0.00000000       0.00000000       0.00000000       0.00000000       0.00000000       0.00000000
H        1.40307756       2.43020162      14.58243212        1       1.00000000       0.00000000       0.00000000       0.00000000       0.00000000       0.00000000       0.00000000
H        4.20923268       2.43020162      14.58243212        1       1.00000000       0.00000000       0.00000000       0.00000000       0.00000000       0.00000000       0.00000000
H        1.40295987       0.80202712      16.78192042        0       1.00000000      -0.00005938       0.00010832       0.00002193      -0.00001082       0.00010831      -0.00048663
H        5.60472771       3.23661615      16.80072465        0       1.00000000       0.00026222      -0.00006408       0.00028112       0.00044509       0.00016315       0.00061687
H        5.60995256       0.00071487      19.01802351        0       1.00000000       0.00019373      -0.00032612       0.00008170      -0.00004715      -0.00029540       0.00021647
H        4.20907617       0.82622531      16.79893682        0       1.00000000       0.00015684      -0.00032754       0.00013114      -0.00047181      -0.00040682      -0.00023930
H        1.40285530       2.42666267      19.01636211        0       1.00000000       0.00022314      -0.00002316       0.00001891      -0.00024450       0.00031495      -0.00040595
H        2.80804932       0.00059686      19.01835806        0       1.00000000       0.00015628      -0.00004767       0.00009291       0.00042638      -0.00020776       0.00013252
H        2.81376044       3.23647324      16.80096136        0       1.00000000       0.00011782       0.00011408       0.00009382      -0.00042301       0.00044930       0.00042214
19
Lattice="5.612310241546866 0.0 0.0 0.0 4.860403243099165 0.0 0.0 0.0 24.582432123328676" Properties=species:S:1:pos:R:3:tags:I:1:masses:R:1:momenta:R:3:forces:R:3 KEmax=24.559391461069055 iter=59964 volume=670.5618179858607 ns_energy=-12.534048565672025 last_walked_iter_clone=59837 energy=-12.534048786356482 stress="0.008708551311470192 6.74693119011604e-07 6.328809739666908e-07 6.74693119011604e-07 0.008746521698970923 2.0665884478185079e-07 6.328809739666908e-07 2.0665884478185079e-07 0.004264173193029642" pbc="T T T"
H        1.40307756       0.81006721      10.00000000        3       1.00000000       0.00000000       0.00000000       0.00000000       0.00000000       0.00000000       0.00000000
H        4.20923268       0.81006721      10.00000000        3       1.00000000       0.00000000       0.00000000       0.00000000       0.00000000       0.00000000       0.00000000
H        0.00000000       3.24026883      10.00000000        3       1.00000000       0.00000000       0.00000000       0.00000000       0.00000000       0.00000000       0.00000000
H        2.80615512       3.24026883      10.00000000        3       1.00000000       0.00000000       0.00000000       0.00000000       0.00000000       0.00000000       0.00000000
H        0.00000000       1.62013441      12.29121606        2       1.00000000       0.00000000       0.00000000       0.00000000       0.00000000       0.00000000       0.00000000
H        2.80615512       1.62013441      12.29121606        2       1.00000000       0.00000000       0.00000000       0.00000000       0.00000000       0.00000000       0.00000000
H        1.40307756       4.05033604      12.29121606        2       1.00000000       0.00000000       0.00000000       0.00000000       0.00000000       0.00000000       0.00000000
H        4.20923268       4.05033604      12.29121606        2       1.00000000       0.00000000       0.00000000       0.00000000       0.00000000       0.00000000       0.00000000
H        0.00000000       0.00000000      14.58243212        1       1.00000000       0.00000000       0.00000000       0.00000000       0.00000000       0.00000000       0.00000000
H        2.80615512       0.00000000      14.58243212        1       1.00000000       0.00000000       0.00000000       0.00000000       0.00000000       0.00000000       0.00000000
H        1.40307756       2.43020162      14.58243212        1       1.00000000       0.00000000       0.00000000       0.00000000       0.00000000       0.00000000       0.00000000
H        4.20923268       2.43020162      14.58243212        1       1.00000000       0.00000000       0.00000000       0.00000000       0.00000000       0.00000000       0.00000000
H        1.40309714       0.80211159      16.78199669        0       1.00000000      -0.00034159      -0.00009725       0.00012857      -0.00001082       0.00010831      -0.00048663
H        5.60486993       3.23641088      16.80088536        0       1.00000000       0.00017517       0.00004550       0.00030070       0.00044509       0.00016315       0.00061687
H        5.61021321       0.00010763      19.01835211        0       1.00000000      -0.00004411       0.00011635      -0.00013037      -0.00004715      -0.00029540       0.00021647
H        4.20937781       0.82599978      16.79903922        0       1.00000000       0.00000203       0.00025763       0.00014435      -0.00047181      -0.00040682      -0.00023930
H        1.40304308       2.42608851      19.01649103        0       1.00000000      -0.00016998       0.00020650      -0.00018015      -0.00024450       0.00031495      -0.00040595
H        2.80831381       0.00033330      19.01830295        0       1.00000000       0.00003578       0.00014607      -0.00001303       0.00042638      -0.00020776       0.00013252
H        2.81383477       3.23635971      16.80096605        0       1.00000000       0.00000646       0.00007933      -0.00036746      -0.00042301       0.00044930       0.00042214
19
Lattice="5.612310241546866 0.0 0.0 0.0 4.860403243099165 0.0 0.0 0.0 24.582432123328676" Properties=species:S:1:pos:R:3:tags:I:1:masses:R:1:momenta:R:3:forces:R:3 KEmax=24.559391461069055 iter=59964 volume=670.5618179858607 ns_energy=-12.534048529864334 last_walked_iter_clone=59890 energy=-12.534048786356482 stress="0.008708551311470192 6.74693119011604e-07 6.328809739666908e-07 6.74693119011604e-07 0.008746521698970923 2.0665884478185079e-07 6.328809739666908e-07 2.0665884478185079e-07 0.004264173193029642" pbc="T T T"
H        1.40307756       0.81006721      10.00000000        3       1.00000000       0.00000000       0.00000000       0.00000000       0.00000000       0.00000000       0.00000000
H        4.20923268       0.81006721      10.00000000        3       1.00000000       0.00000000       0.00000000       0.00000000       0.00000000       0.00000000       0.00000000
H        0.00000000       3.24026883      10.00000000        3       1.00000000       0.00000000       0.00000000       0.00000000       0.00000000       0.00000000       0.00000000
H        2.80615512       3.24026883      10.00000000        3       1.00000000       0.00000000       0.00000000       0.00000000       0.00000000       0.00000000       0.00000000
H        0.00000000       1.62013441      12.29121606        2       1.00000000       0.00000000       0.00000000       0.00000000       0.00000000       0.00000000       0.00000000
H        2.80615512       1.62013441      12.29121606        2       1.00000000       0.00000000       0.00000000       0.00000000       0.00000000       0.00000000       0.00000000
H        1.40307756       4.05033604      12.29121606        2       1.00000000       0.00000000       0.00000000       0.00000000       0.00000000       0.00000000       0.00000000
H        4.20923268       4.05033604      12.29121606        2       1.00000000       0.00000000       0.00000000       0.00000000       0.00000000       0.00000000       0.00000000
H        0.00000000       0.00000000      14.58243212        1       1.00000000       0.00000000       0.00000000       0.00000000       0.00000000       0.00000000       0.00000000
H        2.80615512       0.00000000      14.58243212        1       1.00000000       0.00000000       0.00000000       0.00000000       0.00000000       0.00000000       0.00000000
H        1.40307756       2.43020162      14.58243212        1       1.00000000       0.00000000       0.00000000       0.00000000       0.00000000       0.00000000       0.00000000
H        4.20923268       2.43020162      14.58243212        1       1.00000000       0.00000000       0.00000000       0.00000000       0.00000000       0.00000000       0.00000000
H        1.40316006       0.80204066      16.78199333        0       1.00000000      -0.00008609       0.00003036       0.00015286      -0.00001082       0.00010831      -0.00048663
H        5.60464807       3.23633774      16.80081167        0       1.00000000      -0.00017638       0.00007485      -0.00049938       0.00044509       0.00016315       0.00061687
H        5.61031331       0.00027938      19.01824660        0       1.00000000       0.00025498      -0.00005855      -0.00004991      -0.00004715      -0.00029540       0.00021647
H        4.20928709       0.82588384      16.79892607        0       1.00000000       0.00003732      -0.00005191       0.00024411      -0.00047181      -0.00040682      -0.00023930
H        1.40287548       2.42623140      19.01649314        0       1.00000000       0.00003895       0.00019969       0.00010136      -0.00024450       0.00031495      -0.00040595
H        2.80844117       0.00042973      19.01842052        0       1.00000000      -0.00020370       0.00000111      -0.00007372       0.00042638      -0.00020776       0.00013252
H        2.81379163       3.23625981      16.80092186        0       1.00000000       0.00004776      -0.00011046      -0.00006020      -0.00042301       0.00044930       0.00042214
19
Lattice="5.612310241546866 0.0 0.0 0.0 4.860403243099165 0.0 0.0 0.0 24.582432123328676" Properties=species:S:1:pos:R:3:tags:I:1:masses:R:1:momenta:R:3:forces:R:3 KEmax=24.559391461069055 iter=59964 volume=670.5618179858607 ns_energy=-12.534048531440819 last_walked_iter_clone=59891 energy=-12.534048786356482 stress="0.008708551311470192 6.74693119011604e-07 6.328809739666908e-07 6.74693119011604e-07 0.008746521698970923 2.0665884478185079e-07 6.328809739666908e-07 2.0665884478185079e-07 0.004264173193029642" pbc="T T T"
H        1.40307756       0.81006721      10.00000000        3       1.00000000       0.00000000       0.00000000       0.00000000       0.00000000       0.00000000       0.00000000
H        4.20923268       0.81006721      10.00000000        3       1.00000000       0.00000000       0.00000000       0.00000000       0.00000000       0.00000000       0.00000000
H        0.00000000       3.24026883      10.00000000        3       1.00000000       0.00000000       0.00000000       0.00000000       0.00000000       0.00000000       0.00000000
H        2.80615512       3.24026883      10.00000000        3       1.00000000       0.00000000       0.00000000       0.00000000       0.00000000       0.00000000       0.00000000
H        0.00000000       1.62013441      12.29121606        2       1.00000000       0.00000000       0.00000000       0.00000000       0.00000000       0.00000000       0.00000000
H        2.80615512       1.62013441      12.29121606        2       1.00000000       0.00000000       0.00000000       0.00000000       0.00000000       0.00000000       0.00000000
H        1.40307756       4.05033604      12.29121606        2       1.00000000       0.00000000       0.00000000       0.00000000       0.00000000       0.00000000       0.00000000
H        4.20923268       4.05033604      12.29121606        2       1.00000000       0.00000000       0.00000000       0.00000000       0.00000000       0.00000000       0.00000000
H        0.00000000       0.00000000      14.58243212        1       1.00000000       0.00000000       0.00000000       0.00000000       0.00000000       0.00000000       0.00000000
H        2.80615512       0.00000000      14.58243212        1       1.00000000       0.00000000       0.00000000       0.00000000       0.00000000       0.00000000       0.00000000
H        1.40307756       2.43020162      14.58243212        1       1.00000000       0.00000000       0.00000000       0.00000000       0.00000000       0.00000000       0.00000000
H        4.20923268       2.43020162      14.58243212        1       1.00000000       0.00000000       0.00000000       0.00000000       0.00000000       0.00000000       0.00000000
H        1.40312634       0.80202448      16.78199197        0       1.00000000      -0.00040137       0.00011820       0.00026225      -0.00001082       0.00010831      -0.00048663
H        5.60471384       3.23622460      16.80077428        0       1.00000000      -0.00023032      -0.00008018      -0.00025865       0.00044509       0.00016315       0.00061687
H        5.61022359       0.00015226      19.01811454        0       1.00000000       0.00001934      -0.00016037       0.00028272      -0.00004715      -0.00029540       0.00021647
H        4.20927921       0.82604937      16.79891969        0       1.00000000       0.00012101      -0.00002418      -0.00011827      -0.00047181      -0.00040682      -0.00023930
H        1.40307898       2.42629683      19.01647693        0       1.00000000      -0.00006012      -0.00003221      -0.00012858      -0.00024450       0.00031495      -0.00040595
H        2.80850481       0.00033854      19.01822145        0       1.00000000       0.00014543       0.00017329       0.00013601       0.00042638      -0.00020776       0.00013252
H        2.81376953       3.23633709      16.80078722        0       1.00000000      -0.00020413      -0.00014204       0.00003466      -0.00042301       0.00044930       0.00042214
19
Lattice="5.612310241546866 0.0 0.0 0.0 4.860403243099165 0.0 0.0 0.0 24.582432123328676" Properties=species:S:1:pos:R:3:tags:I:1:masses:R:1:momenta:R:3:forces:R:3 KEmax=24.559391461069055 iter=59964 volume=670.5618179858607 ns_energy=-12.534048516200762 last_walked_iter_clone=59804 energy=-12.534048786356482 stress="0.008708551311470192 6.74693119011604e-07 6.328809739666908e-07 6.74693119011604e-07 0.008746521698970923 2.0665884478185079e-07 6.328809739666908e-07 2.0665884478185079e-07 0.004264173193029642" pbc="T T T"
H        1.40307756       0.81006721      10.00000000        3       1.00000000       0.00000000       0.00000000       0.00000000       0.00000000       0.00000000       0.00000000
H        4.20923268       0.81006721      10.00000000        3       1.00000000       0.00000000       0.00000000       0.00000000       0.00000000       0.00000000       0.00000000
H        0.00000000       3.24026883      10.00000000        3       1.00000000       0.00000000       0.00000000       0.00000000       0.00000000       0.00000000       0.00000000
H        2.80615512       3.24026883      10.00000000        3       1.00000000       0.00000000       0.00000000       0.00000000       0.00000000       0.00000000       0.00000000
H        0.00000000       1.62013441      12.29121606        2       1.00000000       0.00000000       0.00000000       0.00000000       0.00000000       0.00000000       0.00000000
H        2.80615512       1.62013441      12.29121606        2       1.00000000       0.00000000       0.00000000       0.00000000       0.00000000       0.00000000       0.00000000
H        1.40307756       4.05033604      12.29121606        2       1.00000000       0.00000000       0.00000000       0.00000000       0.00000000       0.00000000       0.00000000
H        4.20923268       4.05033604      12.29121606        2       1.00000000       0.00000000       0.00000000       0.00000000       0.00000000       0.00000000       0.00000000
H        0.00000000       0.00000000      14.58243212        1       1.00000000       0.00000000       0.00000000       0.00000000       0.00000000       0.00000000       0.00000000
H        2.80615512       0.00000000      14.58243212        1       1.00000000       0.00000000       0.00000000       0.00000000       0.00000000       0.00000000       0.00000000
H        1.40307756       2.43020162      14.58243212        1       1.00000000       0.00000000       0.00000000       0.00000000       0.00000000       0.00000000       0.00000000
H        4.20923268       2.43020162      14.58243212        1       1.00000000       0.00000000       0.00000000       0.00000000       0.00000000       0.00000000       0.00000000
H        1.40322174       0.80220840      16.78198703        0       1.00000000       0.00007195      -0.00003464      -0.00031618      -0.00001082       0.00010831      -0.00048663
H        5.60480730       3.23662091      16.80083788        0       1.00000000       0.00015985       0.00021490      -0.00009263       0.00044509       0.00016315       0.00061687
H        5.61034358       0.00060517      19.01823425        0       1.00000000      -0.00036827       0.00007303       0.00012274      -0.00004715      -0.00029540       0.00021647
H        4.20935215       0.82614021      16.79903693        0       1.00000000       0.00019023      -0.00008191       0.00016802      -0.00047181      -0.00040682      -0.00023930
H        1.40307529       2.42642978      19.01641938        0       1.00000000       0.00004165       0.00014750      -0.00021923      -0.00024450       0.00031495      -0.00040595
H        2.80835236       0.00041953      19.01829378        0       1.00000000      -0.00017392      -0.00019994      -0.00003427       0.00042638      -0.00020776       0.00013252
H        2.81366230       3.23643937      16.80097619        0       1.00000000      -0.00033702       0.00010306       0.00003401      -0.00042301       0.00044930       0.00042214
19
Lattice="5.612310241546866 0.0 0.0 0.0 4.860403243099165 0.0 0.0 0.0 24.582432123328676" Properties=species:S:1:pos:R:3:tags:I:1:masses:R:1:momenta:R:3:forces:R:3 KEmax=24.559391461069055 iter=59964 volume=670.5618179858607 ns_energy=-12.534048512536229 last_walked_iter_clone=59893 energy=-12.534048786356482 stress="0.008708551311470192 6.74693119011604e-07 6.328809739666908e-07 6.74693119011604e-07 0.008746521698970923 2.0665884478185079e-07 6.328809739666908e-07 2.0665884478185079e-07 0.004264173193029642" pbc="T T T"
H        1.40307756       0.81006721      10.00000000        3       1.00000000       0.00000000       0.00000000       0.00000000       0.00000000       0.00000000       0.00000000
H        4.20923268       0.81006721      10.00000000        3       1.00000000       0.00000000       0.00000000       0.00000000       0.00000000       0.00000000       0.00000000
H        0.00000000       3.24026883      10.00000000        3       1.00000000       0.00000000       0.00000000       0.00000000       0.00000000       0.00000000       0.00000000
H        2.80615512       3.24026883      10.00000000        3       1.00000000       0.00000000       0.00000000       0.00000000       0.00000000       0.00000000       0.00000000
H        0.00000000       1.62013441      12.29121606        2       1.00000000       0.00000000       0.00000000       0.00000000       0.00000000       0.00000000       0.00000000
H        2.80615512       1.62013441      12.29121606        2       1.00000000       0.00000000       0.00000000       0.00000000       0.00000000       0.00000000       0.00000000
H        1.40307756       4.05033604      12.29121606        2       1.00000000       0.00000000       0.00000000       0.00000000       0.00000000       0.00000000       0.00000000
H        4.20923268       4.05033604      12.29121606        2       1.00000000       0.00000000       0.00000000       0.00000000       0.00000000       0.00000000       0.00000000
H        0.00000000       0.00000000      14.58243212        1       1.00000000       0.00000000       0.00000000       0.00000000       0.00000000       0.00000000       0.00000000
H        2.80615512       0.00000000      14.58243212        1       1.00000000       0.00000000       0.00000000       0.00000000       0.00000000       0.00000000       0.00000000
H        1.40307756       2.43020162      14.58243212        1       1.00000000       0.00000000       0.00000000       0.00000000       0.00000000       0.00000000       0.00000000
H        4.20923268       2.43020162      14.58243212        1       1.00000000       0.00000000       0.00000000       0.00000000       0.00000000       0.00000000       0.00000000
H        1.40310157       0.80228760      16.78191852        0       1.00000000      -0.00007403       0.00013313      -0.00012495      -0.00001082       0.00010831      -0.00048663
H        5.60457092       3.23660563      16.80094197        0       1.00000000       0.00001360       0.00020594       0.00003736       0.00044509       0.00016315       0.00061687
H        5.61026796       0.00045272      19.01822019        0       1.00000000       0.00008865      -0.00009184       0.00011598      -0.00004715      -0.00029540       0.00021647
H        4.20941580       0.82637124      16.79895323        0       1.00000000       0.00018202       0.00000851      -0.00008653      -0.00047181      -0.00040682      -0.00023930
H        1.40308759       2.42648897      19.01661923        0       1.00000000      -0.00019591      -0.00020051       0.00006515      -0.00024450       0.00031495      -0.00040595
H        2.80853150       0.00048503      19.01825516        0       1.00000000       0.00005714       0.00023893      -0.00030130       0.00042638      -0.00020776       0.00013252
H        2.81357834       3.23645564      16.80092358        0       1.00000000       0.00025577      -0.00002907       0.00000256      -0.00042301       0.00044930       0.00042214
19
Lattice="5.612310241546866 0.0 0.0 0.0 4.860403243099165 0.0 0.0 0.0 24.582432123328676" Properties=species:S:1:pos:R:3:tags:I:1:masses:R:1:momenta:R:3:forces:R:3 KEmax=24.559391461069055 iter=59964 volume=670.5618179858607 ns_energy=-12.534048521629725 last_walked_iter_clone=59946 energy=-12.534048786356482 stress="0.008708551311470192 6.74693119011604e-07 6.328809739666908e-07 6.74693119011604e-07 0.008746521698970923 2.0665884478185079e-07 6.328809739666908e-07 2.0665884478185079e-07 0.004264173193029642" pbc="T T T"
H        1.40307756       0.81006721      10.00000000        3       1.00000000       0.00000000       0.00000000       0.00000000       0.00000000       0.00000000       0.00000000
H        4.20923268       0.81006721      10.00000000        3       1.00000000       0.00000000       0.00000000       0.00000000       0.00000000       0.00000000       0.00000000
H        0.00000000       3.24026883      10.00000000        3       1.00000000       0.00000000       0.00000000       0.00000000       0.00000000       0.00000000       0.00000000
H        2.80615512       3.24026883      10.00000000        3       1.00000000       0.00000000       0.00000000       0.00000000       0.00000000       0.00000000       0.00000000
H        0.00000000       1.62013441      12.29121606        2       1.00000000       0.00000000       0.00000000       0.00000000       0.00000000       0.00000000       0.00000000
H        2.80615512       1.62013441      12.29121606        2       1.00000000       0.00000000       0.00000000       0.00000000       0.00000000       0.00000000       0.00000000
H        1.40307756       4.05033604      12.29121606        2       1.00000000       0.00000000       0.00000000       0.00000000       0.00000000       0.00000000       0.00000000
H        4.20923268       4.05033604      12.29121606        2       1.00000000       0.00000000       0.00000000       0.00000000       0.00000000       0.00000000       0.00000000