19
Lattice="5.612310241546866 0.0 0.0 0.0 4.860403243099165 0.0 0.0 0.0 24.582432123328676" Properties=species:S:1:pos:R:3:tags:I:1:masses:R:1:momenta:R:3:forces:R:3 KEmax=24.559391461069055 iter=119999 volume=670.5618179858607 ns_energy=-12.534049061688203 last_walked_iter_clone=119822 energy=-12.534049061689776 stress="0.008709435431256752 3.316535566082093e-09 1.664904957332482e-09 3.316535566082093e-09 0.008746638180945017 1.5751924801718901e-10 1.664904957332482e-09 1.5751924801718901e-10 0.004264841395049879" pbc="T T T"
H        1.40307756       0.81006721      10.00000000        3       1.00000000       0.00000000       0.00000000       0.00000000       0.00000000       0.00000000       0.00000000
H        4.20923268       0.81006721      10.00000000        3       1.00000000       0.00000000       0.00000000       0.00000000       0.00000000       0.00000000       0.00000000
H        0.00000000       3.24026883      10.00000000        3       1.00000000       0.00000000       0.00000000       0.00000000       0.00000000       0.00000000       0.00000000
H        2.80615512       3.24026883      10.00000000        3       1.00000000       0.00000000       0.00000000       0.00000000       0.00000000       0.00000000       0.00000000
H        0.00000000       1.62013441      12.29121606        2       1.00000000       0.00000000       0.00000000       0.00000000       0.00000000       0.00000000       0.00000000
H        2.80615512       1.62013441      12.29121606        2       1.00000000       0.00000000       0.00000000       0.00000000       0.00000000       0.00000000       0.00000000
H        1.40307756       4.05033604      12.29121606        2       1.00000000       0.00000000       0.00000000       0.00000000       0.00000000       0.00000000       0.00000000
H        4.20923268       4.05033604      12.29121606        2       1.00000000       0.00000000       0.00000000       0.00000000       0.00000000       0.00000000       0.00000000
H        0.00000000       0.00000000      14.58243212        1       1.00000000       0.00000000       0.00000000       0.00000000       0.00000000       0.00000000       0.00000000
H        2.80615512       0.00000000      14.58243212        1       1.00000000       0.00000000       0.00000000       0.00000000       0.00000000       0.00000000       0.00000000
H        1.40307756       2.43020162      14.58243212        1       1.00000000       0.00000000       0.00000000       0.00000000       0.00000000       0.00000000       0.00000000
H        4.20923268       2.43020162      14.58243212        1       1.00000000       0.00000000       0.00000000       0.00000000       0.00000000       0.00000000       0.00000000
H        1.40307865       0.80207101      16.78197781        0       1.00000000       0.00000003      -0.00000008       0.00000048      -0.00000171      -0.00000138      -0.00000166
H        5.60472636       3.23643459      16.80093699        0       1.00000000       0.00000034       0.00000089      -0.00000063      -0.00000154      -0.00000160      -0.00000117
H        5.61016002       0.00047340      19.01825992        0       1.00000000       0.00000144       0.00000001      -0.00000051       0.00000241       0.00000180      -0.00000060
H        4.20923336       0.82611096      16.79894335        0       1.00000000       0.00000069       0.00000029       0.00000002       0.00000201       0.00000084      -0.00000427
H        1.40308006       2.42643528      19.01649894        0       1.00000000       0.00000057       0.00000069      -0.00000080      -0.00000173      -0.00000029       0.00000055
H        2.80830914       0.00047248      19.01825865        0       1.00000000      -0.00000075       0.00000002      -0.00000104      -0.00000119      -0.00000100       0.00000265
H        2.81374026       3.23643399      16.80093611        0       1.00000000      -0.00000002      -0.00000049      -0.00000107       0.00000173       0.00000059      -0.00000249
19
Lattice="5.612310241546866 0.0 0.0 0.0 4.860403243099165 0.0 0.0 0.0 24.582432123328676" Properties=species:S:1:pos:R:3:tags:I:1:masses:R:1:momenta:R:3:forces:R:3 KEmax=24.559391461069055 iter=119999 volume=670.5618179858607 ns_energy=-12.534049061687899 last_walked_iter_clone=119999 energy=-12.534049061689776 stress="0.008709435431256752 3.316535566082093e-09 1.664904957332482e-09 3.316535566082093e-09 0.008746638180945017 1.5751924801718901e-10 1.664904957332482e-09 1.5751924801718901e-10 0.004264841395049879" pbc="T T T"
H        1.40307756       0.81006721      10.00000000        3       1.00000000       0.00000000       0.00000000       0.00000000       0.00000000       0.00000000       0.00000000
H        4.20923268       0.81006721      10.00000000        3       1.00000000       0.00000000       0.00000000       0.00000000       0.00000000       0.00000000       0.00000000
H        0.00000000       3.24026883      10.00000000        3       1.00000000       0.00000000       0.00000000       0.00000000       0.00000000       0.00000000       0.00000000
H        2.80615512       3.24026883      10.00000000        3       1.00000000       0.00000000       0.00000000       0.00000000       0.00000000       0.00000000       0.00000000
H        0.00000000       1.62013441      12.29121606        2       1.00000000       0.00000000       0.00000000       0.00000000       0.00000000       0.00000000       0.00000000
H        2.80615512       1.62013441      12.29121606        2       1.00000000       0.00000000       0.00000000       0.00000000       0.00000000       0.00000000       0.00000000
H        1.40307756       4.05033604      12.29121606        2       1.00000000       0.00000000       0.00000000       0.00000000       0.00000000       0.00000000       0.00000000
H        4.20923268       4.05033604      12.29121606        2       1.00000000       0.00000000       0.00000000       0.00000000       0.00000000       0.00000000       0.00000000
H        0.00000000       0.00000000      14.58243212        1       1.00000000       0.00000000       0.00000000       0.00000000       0.00000000       0.00000000       0.00000000
H        2.80615512       0.00000000      14.58243212        1       1.00000000       0.00000000       0.00000000       0.00000000       0.00000000       0.00000000       0.00000000
H        1.40307756       2.43020162      14.58243212        1       1.00000000       0.00000000       0.00000000       0.00000000       0.00000000       0.00000000       0.00000000
H        4.20923268       2.43020162      14.58243212        1       1.00000000       0.00000000       0.00000000       0.00000000       0.00000000       0.00000000       0.00000000
H        1.40307626       0.80207021      16.78197775        0       1.00000000      -0.00000008      -0.00000023       0.00000062      -0.00000171      -0.00000138      -0.00000166
H        5.60472425       3.23643338      16.80093630        0       1.00000000      -0.00000105       0.00000008       0.00000030      -0.00000154      -0.00000160      -0.00000117
H        5.61015688       0.00047174      19.01825926        0       1.00000000       0.00000013       0.00000001      -0.00000007       0.00000241       0.00000180      -0.00000060
H        4.20923188       0.82611034      16.79894309        0       1.00000000      -0.00000078      -0.00000076      -0.00000008       0.00000201       0.00000084      -0.00000427
H        1.40307678       2.42643427      19.01649920        0       1.00000000       0.00000030       0.00000073       0.00000007      -0.00000173      -0.00000029       0.00000055
H        2.80830543       0.00047265      19.01825984        0       1.00000000       0.00000052       0.00000037       0.00000014      -0.00000119      -0.00000100       0.00000265
H        2.81373890       3.23643431      16.80093688        0       1.00000000       0.00000050       0.00000027      -0.00000171       0.00000173       0.00000059      -0.00000249
19
Lattice="5.612310241546866 0.0 0.0 0.0 4.860403243099165 0.0 0.0 0.0 24.582432123328676" Properties=species:S:1:pos:R:3:tags:I:1:masses:R:1:momenta:R:3:forces:R:3 KEmax=24.559391461069055 iter=119999 volume=670.5618179858607 ns_energy=-12.534049061687798 last_walked_iter_clone=119375 energy=-12.534049061689776 stress="0.008709435431256752 3.316535566082093e-09 1.664904957332482e-09 3.316535566082093e-09 0.008746638180945017 1.5751924801718901e-10 1.664904957332482e-09 1.5751924801718901e-10 0.004264841395049879" pbc="T T T"
H        1.40307756       0.81006721      10.00000000        3       1.00000000       0.00000000       0.00000000       0.00000000       0.00000000       0.00000000       0.00000000
H        4.20923268       0.81006721      10.00000000        3       1.00000000       0.00000000       0.00000000       0.00000000       0.00000000       0.00000000       0.00000000
H        0.00000000       3.24026883      10.00000000        3       1.00000000       0.00000000       0.00000000       0.00000000       0.00000000       0.00000000       0.00000000
H        2.80615512       3.24026883      10.00000000        3       1.00000000       0.00000000       0.00000000       0.00000000       0.00000000       0.00000000       0.00000000
H        0.00000000       1.62013441      12.29121606        2       1.00000000       0.00000000       0.00000000       0.00000000       0.00000000       0.00000000       0.00000000
H        2.80615512       1.62013441      12.29121606        2       1.00000000       0.00000000       0.00000000       0.00000000       0.00000000       0.00000000       0.00000000
H        1.40307756       4.05033604      12.29121606        2       1.00000000       0.00000000       0.00000000       0.00000000       0.00000000       0.00000000       0.00000000
H        4.20923268       4.05033604      12.29121606        2       1.00000000       0.00000000       0.00000000       0.00000000       0.00000000       0.00000000       0.00000000
H        0.00000000       0.00000000      14.58243212        1       1.00000000       0.00000000       0.00000000       0.00000000       0.00000000       0.00000000       0.00000000
H        2.80615512       0.00000000      14.58243212        1       1.00000000       0.00000000       0.00000000       0.00000000       0.00000000       0.00000000       0.00000000
H        1.40307756       2.43020162      14.58243212        1       1.00000000       0.00000000       0.00000000       0.00000000       0.00000000       0.00000000       0.00000000
H        4.20923268       2.43020162      14.58243212        1       1.00000000       0.00000000       0.00000000       0.00000000       0.00000000       0.00000000       0.00000000
H        1.40307828       0.80207057      16.78197891        0       1.00000000      -0.00000111       0.00000115       0.00000111      -0.00000171      -0.00000138      -0.00000166
H        5.60472561       3.23643436      16.80093680        0       1.00000000       0.00000071      -0.00000037       0.00000005      -0.00000154      -0.00000160      -0.00000117
H        5.61015883       0.00047394      19.01825897        0       1.00000000      -0.00000040      -0.00000043      -0.00000076       0.00000241       0.00000180      -0.00000060
H        4.20923349       0.82611112      16.79894297        0       1.00000000      -0.00000053      -0.00000031      -0.00000004       0.00000201       0.00000084      -0.00000427
H        1.40307836       2.42643546      19.01649856        0       1.00000000       0.00000062      -0.00000076      -0.00000089      -0.00000173      -0.00000029       0.00000055
H        2.80830805       0.00047383      19.01826054        0       1.00000000       0.00000024       0.00000048       0.00000020      -0.00000119      -0.00000100       0.00000265
H        2.81373962       3.23643465      16.80093634        0       1.00000000       0.00000014      -0.00000029      -0.00000091       0.00000173       0.00000059      -0.00000249
19
Lattice="5.612310241546866 0.0 0.0 0.0 4.860403243099165 0.0 0.0 0.0 24.582432123328676" Properties=species:S:1:pos:R:3:tags:I:1:masses:R:1:momenta:R:3:forces:R:3 KEmax=24.559391461069055 iter=119999 volume=670.5618179858607 ns_energy=-12.534049061687794 last_walked_iter_clone=119831 energy=-12.534049061689776 stress="0.008709435431256752 3.316535566082093e-09 1.664904957332482e-09 3.316535566082093e-09 0.008746638180945017 1.5751924801718901e-10 1.664904957332482e-09 1.5751924801718901e-10 0.004264841395049879" pbc="T T T"
H        1.40307756       0.81006721      10.00000000        3       1.00000000       0.00000000       0.00000000       0.00000000       0.00000000       0.00000000       0.00000000
H        4.20923268       0.81006721      10.00000000        3       1.00000000       0.00000000       0.00000000       0.00000000       0.00000000       0.00000000       0.00000000
H        0.00000000       3.24026883      10.00000000        3       1.00000000       0.00000000       0.00000000       0.00000000       0.00000000       0.00000000       0.00000000
H        2.80615512       3.24026883      10.00000000        3       1.00000000       0.00000000       0.00000000       0.00000000       0.00000000       0.00000000       0.00000000
H        0.00000000       1.62013441      12.29121606        2       1.00000000       0.00000000       0.00000000       0.00000000       0.00000000       0.00000000       0.00000000
H        2.80615512       1.62013441      12.29121606        2       1.00000000       0.00000000       0.00000000       0.00000000       0.00000000       0.00000000       0.00000000
H        1.40307756       4.05033604      12.29121606        2       1.00000000       0.00000000       0.00000000       0.00000000       0.00000000       0.00000000       0.00000000
H        4.20923268       4.05033604      12.29121606        2       1.00000000       0.00000000       0.00000000       0.00000000       0.00000000       0.00000000       0.00000000
H        0.00000000       0.00000000      14.58243212        1       1.00000000       0.00000000       0.00000000       0.00000000       0.00000000       0.00000000       0.00000000
H        2.80615512       0.00000000      14.58243212        1       1.00000000       0.00000000       0.00000000       0.00000000       0.00000000       0.00000000       0.00000000
H        1.40307756       2.43020162      14.58243212        1       1.00000000       0.00000000       0.00000000       0.00000000       0.00000000       0.00000000       0.00000000
H        4.20923268       2.43020162      14.58243212        1       1.00000000       0.00000000       0.00000000       0.00000000       0.00000000       0.00000000       0.00000000
H        1.40307727       0.80207142      16.78197853        0       1.00000000       0.00000037       0.00000003      -0.00000042      -0.00000171      -0.00000138      -0.00000166
H        5.60472626       3.23643411      16.80093676        0       1.00000000       0.00000069      -0.00000038      -0.00000052      -0.00000154      -0.00000160      -0.00000117
H        5.61015962       0.00047321      19.01825981        0       1.00000000       0.00000046       0.00000067      -0.00000030       0.00000241       0.00000180      -0.00000060
H        4.20923315       0.82610967      16.79894321        0       1.00000000      -0.00000067       0.00000033      -0.00000038       0.00000201       0.00000084      -0.00000427
H        1.40307776       2.42643536      19.01649981        0       1.00000000       0.00000080      -0.00000000       0.00000174      -0.00000173      -0.00000029       0.00000055
H        2.80830852       0.00047327      19.01825905        0       1.00000000      -0.00000022       0.00000080      -0.00000025      -0.00000119      -0.00000100       0.00000265
H        2.81374016       3.23643423      16.80093674        0       1.00000000      -0.00000025      -0.00000105      -0.00000028       0.00000173       0.00000059      -0.00000249
19
Lattice="5.612310241546866 0.0 0.0 0.0 4.860403243099165 0.0 0.0 0.0 24.582432123328676" Properties=species:S:1:pos:R:3:tags:I:1:masses:R:1:momenta:R:3:forces:R:3 KEmax=24.559391461069055 iter=119999 volume=670.5618179858607 ns_energy=-12.534049061687796 last_walked_iter_clone=119670 energy=-12.534049061689776 stress="0.008709435431256752 3.316535566082093e-09 1.664904957332482e-09 3.316535566082093e-09 0.008746638180945017 1.5751924801718901e-10 1.664904957332482e-09 1.5751924801718901e-10 0.004264841395049879" pbc="T T T"
H        1.40307756       0.81006721      10.00000000        3       1.00000000       0.00000000       0.00000000       0.00000000       0.00000000       0.00000000       0.00000000
H        4.20923268       0.81006721      10.00000000        3       1.00000000       0.00000000       0.00000000       0.00000000       0.00000000       0.00000000       0.00000000
H        0.00000000       3.24026883      10.00000000        3       1.00000000       0.00000000       0.00000000       0.00000000       0.00000000       0.00000000       0.00000000
H        2.80615512       3.24026883      10.00000000        3       1.00000000       0.00000000       0.00000000       0.00000000       0.00000000       0.00000000       0.00000000
H        0.00000000       1.62013441      12.29121606        2       1.00000000       0.00000000       0.00000000       0.00000000       0.00000000       0.00000000       0.00000000
H        2.80615512       1.62013441      12.29121606        2       1.00000000       0.00000000       0.00000000       0.00000000       0.00000000       0.00000000       0.00000000
H        1.40307756       4.05033604      12.29121606        2       1.00000000       0.00000000       0.00000000       0.00000000       0.00000000       0.00000000       0.00000000
H        4.20923268       4.05033604      12.29121606        2       1.00000000       0.00000000       0.00000000       0.00000000       0.00000000       0.00000000       0.00000000
H        0.00000000       0.00000000      14.58243212        1       1.00000000       0.00000000       0.00000000       0.00000000       0.00000000       0.00000000       0.00000000
H        2.80615512       0.00000000      14.58243212        1       1.00000000       0.00000000       0.00000000       0.00000000       0.00000000       0.00000000       0.00000000
H        1.40307756       2.43020162      14.58243212        1       1.00000000       0.00000000       0.00000000       0.00000000       0.00000000       0.00000000       0.00000000
H        4.20923268       2.43020162      14.58243212        1       1.00000000       0.00000000       0.00000000       0.00000000       0.00000000       0.00000000       0.00000000
H        1.40307746       0.80207092      16.78197869        0       1.00000000      -0.00000031       0.00000012      -0.00000012      -0.00000171      -0.00000138      -0.00000166
H        5.60472528       3.23643460      16.80093702        0       1.00000000       0.00000004      -0.00000002       0.00000100      -0.00000154      -0.00000160      -0.00000117
H        5.61015767       0.00047322      19.01825958        0       1.00000000      -0.00000053       0.00000102       0.00000034       0.00000241       0.00000180      -0.00000060
H        4.20923292       0.82611126      16.79894289        0       1.00000000      -0.00000154      -0.00000134      -0.00000099       0.00000201       0.00000084      -0.00000427
H        1.40307694       2.42643554      19.01649994        0       1.00000000       0.00000035       0.00000127      -0.00000011      -0.00000173      -0.00000029       0.00000055
H        2.80830676       0.00047289      19.01825900        0       1.00000000      -0.00000156       0.00000007      -0.00000054      -0.00000119      -0.00000100       0.00000265
H        2.81373949       3.23643414      16.80093606        0       1.00000000      -0.00000061      -0.00000043      -0.00000072       0.00000173       0.00000059      -0.00000249
19
Lattice="5.612310241546866 0.0 0.0 0.0 4.860403243099165 0.0 0.0 0.0 24.582432123328676" Properties=species:S:1:pos:R:3:tags:I:1:masses:R:1:momenta:R:3:forces:R:3 KEmax=24.559391461069055 iter=119999 volume=670.5618179858607 ns_energy=-12.534049061688032 last_walked_iter_clone=119830 energy=-12.534049061689776 stress="0.008709435431256752 3.316535566082093e-09 1.664904957332482e-09 3.316535566082093e-09 0.008746638180945017 1.5751924801718901e-10 1.664904957332482e-09 1.5751924801718901e-10 0.004264841395049879" pbc="T T T"
H        1.40307756       0.81006721      10.00000000        3       1.00000000       0.00000000       0.00000000       0.00000000       0.00000000       0.00000000       0.00000000
H        4.20923268       0.81006721      10.00000000        3       1.00000000       0.00000000       0.00000000       0.00000000       0.00000000       0.00000000       0.00000000
H        0.00000000       3.24026883      10.00000000        3       1.00000000       0.00000000       0.00000000       0.00000000       0.00000000       0.00000000       0.00000000
H        2.80615512       3.24026883      10.00000000        3       1.00000000       0.00000000       0.00000000       0.00000000       0.00000000       0.00000000       0.00000000
H        0.00000000       1.62013441      12.29121606        2       1.00000000       0.00000000       0.00000000       0.00000000       0.00000000       0.00000000       0.00000000
H        2.80615512       1.62013441      12.29121606        2       1.00000000       0.00000000       0.00000000       0.00000000       0.00000000       0.00000000       0.00000000
H        1.40307756       4.05033604      12.29121606        2       1.00000000       0.00000000       0.00000000       0.00000000       0.00000000       0.00000000       0.00000000
H        4.20923268       4.05033604      12.29121606        2       1.00000000       0.00000000       0.00000000       0.00000000       0.00000000       0.00000000       0.00000000
H        0.00000000       0.00000000      14.58243212        1       1.00000000       0.00000000       0.00000000       0.00000000       0.00000000       0.00000000       0.00000000
H        2.80615512       0.00000000      14.58243212        1       1.00000000       0.00000000       0.00000000       0.00000000       0.00000000       0.00000000       0.00000000
H        1.40307756       2.43020162      14.58243212        1       1.00000000       0.00000000       0.00000000       0.00000000       0.00000000       0.00000000       0.00000000
H        4.20923268       2.43020162      14.58243212        1       1.00000000       0.00000000       0.00000000       0.00000000       0.00000000       0.00000000       0.00000000
H        1.40307790       0.80207067      16.78197793        0       1.00000000      -0.00000012       0.00000004      -0.00000021      -0.00000171      -0.00000138      -0.00000166
H        5.60472547       3.23643432      16.80093673        0       1.00000000      -0.00000054      -0.00000120       0.00000133      -0.00000154      -0.00000160      -0.00000117
H        5.61015972       0.00047366      19.01825944        0       1.00000000       0.00000067       0.00000054      -0.00000025       0.00000241       0.00000180      -0.00000060
H        4.20923367       0.82611066      16.79894245        0       1.00000000      -0.00000007       0.00000027       0.00000099       0.00000201       0.00000084      -0.00000427
H        1.40307853       2.42643554      19.01649861        0       1.00000000       0.00000146       0.00000094       0.00000041      -0.00000173      -0.00000029       0.00000055
H        2.80830874       0.00047341      19.01825819        0       1.00000000      -0.00000059      -0.00000089      -0.00000061      -0.00000119      -0.00000100       0.00000265
H        2.81373959       3.23643386      16.80093614        0       1.00000000       0.00000000      -0.00000089      -0.00000130       0.00000173       0.00000059      -0.00000249
19
Lattice="5.612310241546866 0.0 0.0 0.0 4.860403243099165 0.0 0.0 0.0 24.582432123328676" Properties=species:S:1:pos:R:3:tags:I:1:masses:R:1:momenta:R:3:forces:R:3 KEmax=24.559391461069055 iter=119999 volume=670.5618179858607 ns_energy=-12.534049061688465 last_walked_iter_clone=119820 energy=-12.534049061689776 stress="0.008709435431256752 3.316535566082093e-09 1.664904957332482e-09 3.316535566082093e-09 0.008746638180945017 1.5751924801718901e-10 1.664904957332482e-09 1.5751924801718901e-10 0.004264841395049879" pbc="T T T"
H        1.40307756       0.81006721      10.00000000        3       1.00000000       0.00000000       0.00000000       0.00000000       0.00000000       0.00000000       0.00000000
H        4.20923268       0.81006721      10.00000000        3       1.00000000       0.00000000       0.00000000       0.00000000       0.00000000       0.00000000       0.00000000
H        0.00000000       3.24026883      10.00000000        3       1.00000000       0.00000000       0.00000000       0.00000000       0.00000000       0.00000000       0.00000000
H        2.80615512       3.24026883      10.00000000        3       1.00000000       0.00000000       0.00000000       0.00000000       0.00000000       0.00000000       0.00000000
H        0.00000000       1.62013441      12.29121606        2       1.00000000       0.00000000       0.00000000       0.00000000       0.00000000       0.00000000       0.00000000
H        2.80615512       1.62013441      12.29121606        2       1.00000000       0.00000000       0.00000000       0.00000000       0.00000000       0.00000000       0.00000000
H        1.40307756       4.05033604      12.29121606        2       1.00000000       0.00000000       0.00000000       0.00000000       0.00000000       0.00000000       0.00000000
H        4.20923268       4.05033604      12.29121606        2       1.00000000       0.00000000       0.00000000       0.00000000       0.00000000       0.00000000       0.00000000
H        0.00000000       0.00000000      14.58243212        1       1.00000000       0.00000000       0.00000000       0.00000000       0.00000000       0.00000000       0.00000000
H        2.80615512       0.00000000      14.58243212        1       1.00000000       0.00000000       0.00000000       0.00000000       0.00000000       0.00000000       0.00000000
H        1.40307756       2.43020162      14.58243212        1       1.00000000       0.00000000       0.00000000       0.00000000       0.00000000       0.00000000       0.00000000
H        4.20923268       2.43020162      14.58243212        1       1.00000000       0.00000000       0.00000000       0.00000000       0.00000000       0.00000000       0.00000000
H        1.40307693       0.80206996      16.78197855        0       1.00000000      -0.00000170       0.00000032       0.00000113      -0.00000171      -0.00000138      -0.00000166
H        5.60472501       3.23643395      16.80093693        0       1.00000000      -0.00000063       0.00000000       0.00000039      -0.00000154      -0.00000160      -0.00000117
H        5.61015750       0.00047321      19.01825979        0       1.00000000      -0.00000128       0.00000131      -0.00000115       0.00000241       0.00000180      -0.00000060
H        4.20923283       0.82611024      16.79894268        0       1.00000000       0.00000059      -0.00000002      -0.00000044       0.00000201       0.00000084      -0.00000427
H        1.40307715       2.42643544      19.01649929        0       1.00000000      -0.00000070      -0.00000044      -0.00000072      -0.00000173      -0.00000029       0.00000055
H        2.80830704       0.00047375      19.01825888        0       1.00000000       0.00000092       0.00000005       0.00000029      -0.00000119      -0.00000100       0.00000265
H        2.81373888       3.23643369      16.80093649        0       1.00000000      -0.00000074      -0.00000000       0.00000062       0.00000173       0.00000059      -0.00000249
19
Lattice="5.612310241546866 0.0 0.0 0.0 4.860403243099165 0.0 0.0 0.0 24.582432123328676" Properties=species:S:1:pos:R:3:tags:I:1:masses:R:1:momenta:R:3:forces:R:3 KEmax=24.559391461069055 iter=119999 volume=670.5618179858607 ns_energy=-12.53404906168827 last_walked_iter_clone=117490 energy=-12.534049061689776 stress="0.008709435431256752 3.316535566082093e-09 1.664904957332482e-09 3.316535566082093e-09 0.008746638180945017 1.5751924801718901e-10 1.664904957332482e-09 1.5751924801718901e-10 0.004264841395049879" pbc="T T T"
H        1.40307756       0.81006721      10.00000000        3       1.00000000       0.00000000       0.00000000       0.00000000       0.00000000       0.00000000       0.00000000
H        4.20923268       0.81006721      10.00000000        3       1.00000000       0.00000000       0.00000000       0.00000000       0.00000000       0.00000000       0.00000000
H        0.00000000       3.24026883      10.00000000        3       1.00000000       0.00000000       0.00000000       0.00000000       0.00000000       0.00000000       0.00000000
H        2.80615512       3.24026883      10.00000000        3       1.00000000       0.00000000       0.00000000       0.00000000       0.00000000       0.00000000       0.00000000
H        0.00000000       1.62013441      12.29121606        2       1.00000000       0.00000000       0.00000000       0.00000000       0.00000000       0.00000000       0.00000000
H        2.80615512       1.62013441      12.29121606        2       1.00000000       0.00000000       0.00000000       0.00000000       0.00000000       0.00000000       0.00000000
H        1.40307756       4.05033604      12.29121606        2       1.00000000       0.00000000       0.00000000       0.00000000       0.00000000       0.00000000       0.00000000
H        4.20923268       4.05033604      12.29121606        2       1.00000000       0.00000000       0.00000000       0.00000000       0.00000000       0.00000000       0.00000000