19
Lattice="5.612310241546866 0.0 0.0 0.0 4.860403243099165 0.0 0.0 0.0 24.582432123328676" Properties=species:S:1:pos:R:3:tags:I:1:masses:R:1:momenta:R:3:forces:R:3 KEmax=24.559391461069055 iter=90217 volume=670.5618179858607 ns_energy=-12.534049061522207 last_walked_iter_clone=90073 energy=-12.53404906160962 stress="0.008709427100905262 -4.863531543364148e-09 8.250871593517072e-09 -4.863531543364148e-09 0.008746641588522579 3.9230904526310974e-09 8.250871593517072e-09 3.9230904526310974e-09 0.004264835685192584" pbc="T T T"
H        1.40307756       0.81006721      10.00000000        3       1.00000000       0.00000000       0.00000000       0.00000000       0.00000000       0.00000000       0.00000000
H        4.20923268       0.81006721      10.00000000        3       1.00000000       0.00000000       0.00000000       0.00000000       0.00000000       0.00000000       0.00000000
H        0.00000000       3.24026883      10.00000000        3       1.00000000       0.00000000       0.00000000       0.00000000       0.00000000       0.00000000       0.00000000
H        2.80615512       3.24026883      10.00000000        3       1.00000000       0.00000000       0.00000000       0.00000000       0.00000000       0.00000000       0.00000000
H        0.00000000       1.62013441      12.29121606        2       1.00000000       0.00000000       0.00000000       0.00000000       0.00000000       0.00000000       0.00000000
H        2.80615512       1.62013441      12.29121606        2       1.00000000       0.00000000       0.00000000       0.00000000       0.00000000       0.00000000       0.00000000
H        1.40307756       4.05033604      12.29121606        2       1.00000000       0.00000000       0.00000000       0.00000000       0.00000000       0.00000000       0.00000000
H        4.20923268       4.05033604      12.29121606        2       1.00000000       0.00000000       0.00000000       0.00000000       0.00000000       0.00000000       0.00000000
H        0.00000000       0.00000000      14.58243212        1       1.00000000       0.00000000       0.00000000       0.00000000       0.00000000       0.00000000       0.00000000
H        2.80615512       0.00000000      14.58243212        1       1.00000000       0.00000000       0.00000000       0.00000000       0.00000000       0.00000000       0.00000000
H        1.40307756       2.43020162      14.58243212        1       1.00000000       0.00000000       0.00000000       0.00000000       0.00000000       0.00000000       0.00000000
H        4.20923268       2.43020162      14.58243212        1       1.00000000       0.00000000       0.00000000       0.00000000       0.00000000       0.00000000       0.00000000
H        1.40307630       0.80206818      16.78197932        0       1.00000000      -0.00000162       0.00000262       0.00000360      -0.00001775       0.00000233      -0.00000837
H        5.60472472       3.23643292      16.80093609        0       1.00000000       0.00000187       0.00000257       0.00000452       0.00000359       0.00000309       0.00000174
H        5.61015264       0.00046890      19.01826388        0       1.00000000      -0.00000152       0.00000120      -0.00000004      -0.00000170       0.00000257       0.00000083
H        4.20923327       0.82610942      16.79894508        0       1.00000000      -0.00000035      -0.00000011       0.00000034       0.00001387      -0.00000363      -0.00000130
H        1.40307247       2.42643771      19.01650018        0       1.00000000       0.00000060      -0.00000180       0.00000012       0.00000304      -0.00000922      -0.00000139
H        2.80830106       0.00047576      19.01826309        0       1.00000000      -0.00000024      -0.00000617      -0.00000195      -0.00000240       0.00000512       0.00000535
H        2.81373717       3.23643342      16.80093753        0       1.00000000      -0.00000463      -0.00000305       0.00000365      -0.00000021      -0.00000036      -0.00000439
19
Lattice="5.612310241546866 0.0 0.0 0.0 4.860403243099165 0.0 0.0 0.0 24.582432123328676" Properties=species:S:1:pos:R:3:tags:I:1:masses:R:1:momenta:R:3:forces:R:3 KEmax=24.559391461069055 iter=90217 volume=670.5618179858607 ns_energy=-12.534049061524776 last_walked_iter_clone=90176 energy=-12.53404906160962 stress="0.008709427100905262 -4.863531543364148e-09 8.250871593517072e-09 -4.863531543364148e-09 0.008746641588522579 3.9230904526310974e-09 8.250871593517072e-09 3.9230904526310974e-09 0.004264835685192584" pbc="T T T"
H        1.40307756       0.81006721      10.00000000        3       1.00000000       0.00000000       0.00000000       0.00000000       0.00000000       0.00000000       0.00000000
H        4.20923268       0.81006721      10.00000000        3       1.00000000       0.00000000       0.00000000       0.00000000       0.00000000       0.00000000       0.00000000
H        0.00000000       3.24026883      10.00000000        3       1.00000000       0.00000000       0.00000000       0.00000000       0.00000000       0.00000000       0.00000000
H        2.80615512       3.24026883      10.00000000        3       1.00000000       0.00000000       0.00000000       0.00000000       0.00000000       0.00000000       0.00000000
H        0.00000000       1.62013441      12.29121606        2       1.00000000       0.00000000       0.00000000       0.00000000       0.00000000       0.00000000       0.00000000
H        2.80615512       1.62013441      12.29121606        2       1.00000000       0.00000000       0.00000000       0.00000000       0.00000000       0.00000000       0.00000000
H        1.40307756       4.05033604      12.29121606        2       1.00000000       0.00000000       0.00000000       0.00000000       0.00000000       0.00000000       0.00000000
H        4.20923268       4.05033604      12.29121606        2       1.00000000       0.00000000       0.00000000       0.00000000       0.00000000       0.00000000       0.00000000
H        0.00000000       0.00000000      14.58243212        1       1.00000000       0.00000000       0.00000000       0.00000000       0.00000000       0.00000000       0.00000000
H        2.80615512       0.00000000      14.58243212        1       1.00000000       0.00000000       0.00000000       0.00000000       0.00000000       0.00000000       0.00000000
H        1.40307756       2.43020162      14.58243212        1       1.00000000       0.00000000       0.00000000       0.00000000       0.00000000       0.00000000       0.00000000
H        4.20923268       2.43020162      14.58243212        1       1.00000000       0.00000000       0.00000000       0.00000000       0.00000000       0.00000000       0.00000000
H        1.40307876       0.80207375      16.78197923        0       1.00000000      -0.00000315       0.00000545       0.00000244      -0.00001775       0.00000233      -0.00000837
H        5.60472825       3.23643587      16.80093516        0       1.00000000       0.00000114       0.00000120       0.00000124       0.00000359       0.00000309       0.00000174
H        5.61015876       0.00047645      19.01826322        0       1.00000000       0.00000115       0.00000204      -0.00000063      -0.00000170       0.00000257       0.00000083
H        4.20923230       0.82611381      16.79894378        0       1.00000000       0.00000030       0.00000545      -0.00000286       0.00001387      -0.00000363      -0.00000130
H        1.40308191       2.42643871      19.01650042        0       1.00000000      -0.00000141      -0.00000010       0.00000027       0.00000304      -0.00000922      -0.00000139
H        2.80830968       0.00047783      19.01825967        0       1.00000000       0.00000061       0.00000173       0.00000571      -0.00000240       0.00000512       0.00000535
H        2.81374035       3.23643544      16.80093725        0       1.00000000       0.00000392      -0.00000548       0.00000319      -0.00000021      -0.00000036      -0.00000439
19
Lattice="5.612310241546866 0.0 0.0 0.0 4.860403243099165 0.0 0.0 0.0 24.582432123328676" Properties=species:S:1:pos:R:3:tags:I:1:masses:R:1:momenta:R:3:forces:R:3 KEmax=24.559391461069055 iter=90217 volume=670.5618179858607 ns_energy=-12.534049061520038 last_walked_iter_clone=90104 energy=-12.53404906160962 stress="0.008709427100905262 -4.863531543364148e-09 8.250871593517072e-09 -4.863531543364148e-09 0.008746641588522579 3.9230904526310974e-09 8.250871593517072e-09 3.9230904526310974e-09 0.004264835685192584" pbc="T T T"
H        1.40307756       0.81006721      10.00000000        3       1.00000000       0.00000000       0.00000000       0.00000000       0.00000000       0.00000000       0.00000000
H        4.20923268       0.81006721      10.00000000        3       1.00000000       0.00000000       0.00000000       0.00000000       0.00000000       0.00000000       0.00000000
H        0.00000000       3.24026883      10.00000000        3       1.00000000       0.00000000       0.00000000       0.00000000       0.00000000       0.00000000       0.00000000
H        2.80615512       3.24026883      10.00000000        3       1.00000000       0.00000000       0.00000000       0.00000000       0.00000000       0.00000000       0.00000000
H        0.00000000       1.62013441      12.29121606        2       1.00000000       0.00000000       0.00000000       0.00000000       0.00000000       0.00000000       0.00000000
H        2.80615512       1.62013441      12.29121606        2       1.00000000       0.00000000       0.00000000       0.00000000       0.00000000       0.00000000       0.00000000
H        1.40307756       4.05033604      12.29121606        2       1.00000000       0.00000000       0.00000000       0.00000000       0.00000000       0.00000000       0.00000000
H        4.20923268       4.05033604      12.29121606        2       1.00000000       0.00000000       0.00000000       0.00000000       0.00000000       0.00000000       0.00000000
H        0.00000000       0.00000000      14.58243212        1       1.00000000       0.00000000       0.00000000       0.00000000       0.00000000       0.00000000       0.00000000
H        2.80615512       0.00000000      14.58243212        1       1.00000000       0.00000000       0.00000000       0.00000000       0.00000000       0.00000000       0.00000000
H        1.40307756       2.43020162      14.58243212        1       1.00000000       0.00000000       0.00000000       0.00000000       0.00000000       0.00000000       0.00000000
H        4.20923268       2.43020162      14.58243212        1       1.00000000       0.00000000       0.00000000       0.00000000       0.00000000       0.00000000       0.00000000
H        1.40307787       0.80207105      16.78197853        0       1.00000000       0.00000549      -0.00000005       0.00000070      -0.00001775       0.00000233      -0.00000837
H        5.60472615       3.23643702      16.80093774        0       1.00000000      -0.00000276      -0.00000012      -0.00000032       0.00000359       0.00000309       0.00000174
H        5.61015861       0.00047230      19.01826353        0       1.00000000      -0.00000154       0.00000144      -0.00000244      -0.00000170       0.00000257       0.00000083
H        4.20923265       0.82610769      16.79894448        0       1.00000000      -0.00000030       0.00000093      -0.00000611       0.00001387      -0.00000363      -0.00000130
H        1.40308163       2.42643374      19.01650069        0       1.00000000       0.00000056      -0.00000111      -0.00000467       0.00000304      -0.00000922      -0.00000139
H        2.80830704       0.00047302      19.01825980        0       1.00000000       0.00000129       0.00000256       0.00000781      -0.00000240       0.00000512       0.00000535
H        2.81374112       3.23643207      16.80093616        0       1.00000000      -0.00000043       0.00000170      -0.00000451      -0.00000021      -0.00000036      -0.00000439
19
Lattice="5.612310241546866 0.0 0.0 0.0 4.860403243099165 0.0 0.0 0.0 24.582432123328676" Properties=species:S:1:pos:R:3:tags:I:1:masses:R:1:momenta:R:3:forces:R:3 KEmax=24.559391461069055 iter=90217 volume=670.5618179858607 ns_energy=-12.53404906152089 last_walked_iter_clone=90187 energy=-12.53404906160962 stress="0.008709427100905262 -4.863531543364148e-09 8.250871593517072e-09 -4.863531543364148e-09 0.008746641588522579 3.9230904526310974e-09 8.250871593517072e-09 3.9230904526310974e-09 0.004264835685192584" pbc="T T T"
H        1.40307756       0.81006721      10.00000000        3       1.00000000       0.00000000       0.00000000       0.00000000       0.00000000       0.00000000       0.00000000
H        4.20923268       0.81006721      10.00000000        3       1.00000000       0.00000000       0.00000000       0.00000000       0.00000000       0.00000000       0.00000000
H        0.00000000       3.24026883      10.00000000        3       1.00000000       0.00000000       0.00000000       0.00000000       0.00000000       0.00000000       0.00000000
H        2.80615512       3.24026883      10.00000000        3       1.00000000       0.00000000       0.00000000       0.00000000       0.00000000       0.00000000       0.00000000
H        0.00000000       1.62013441      12.29121606        2       1.00000000       0.00000000       0.00000000       0.00000000       0.00000000       0.00000000       0.00000000
H        2.80615512       1.62013441      12.29121606        2       1.00000000       0.00000000       0.00000000       0.00000000       0.00000000       0.00000000       0.00000000
H        1.40307756       4.05033604      12.29121606        2       1.00000000       0.00000000       0.00000000       0.00000000       0.00000000       0.00000000       0.00000000
H        4.20923268       4.05033604      12.29121606        2       1.00000000       0.00000000       0.00000000       0.00000000       0.00000000       0.00000000       0.00000000
H        0.00000000       0.00000000      14.58243212        1       1.00000000       0.00000000       0.00000000       0.00000000       0.00000000       0.00000000       0.00000000
H        2.80615512       0.00000000      14.58243212        1       1.00000000       0.00000000       0.00000000       0.00000000       0.00000000       0.00000000       0.00000000
H        1.40307756       2.43020162      14.58243212        1       1.00000000       0.00000000       0.00000000       0.00000000       0.00000000       0.00000000       0.00000000
H        4.20923268       2.43020162      14.58243212        1       1.00000000       0.00000000       0.00000000       0.00000000       0.00000000       0.00000000       0.00000000
H        1.40307726       0.80207270      16.78197943        0       1.00000000      -0.00000078       0.00000018      -0.00000139      -0.00001775       0.00000233      -0.00000837
H        5.60472423       3.23643413      16.80093755        0       1.00000000       0.00000094      -0.00000615      -0.00000235       0.00000359       0.00000309       0.00000174
H        5.61016034       0.00046772      19.01826227        0       1.00000000       0.00000154       0.00000242       0.00000463      -0.00000170       0.00000257       0.00000083
H        4.20923164       0.82610810      16.79894091        0       1.00000000       0.00000120       0.00000007       0.00000064       0.00001387      -0.00000363      -0.00000130
H        1.40307898       2.42643076      19.01650124        0       1.00000000       0.00000173      -0.00000029      -0.00000176       0.00000304      -0.00000922      -0.00000139
H        2.80830875       0.00047103      19.01825876        0       1.00000000      -0.00000169       0.00000174       0.00000282      -0.00000240       0.00000512       0.00000535
H        2.81373789       3.23643550      16.80093590        0       1.00000000      -0.00000002       0.00000160      -0.00000765      -0.00000021      -0.00000036      -0.00000439
19
Lattice="5.612310241546866 0.0 0.0 0.0 4.860403243099165 0.0 0.0 0.0 24.582432123328676" Properties=species:S:1:pos:R:3:tags:I:1:masses:R:1:momenta:R:3:forces:R:3 KEmax=24.559391461069055 iter=90217 volume=670.5618179858607 ns_energy=-12.534049061523973 last_walked_iter_clone=90203 energy=-12.53404906160962 stress="0.008709427100905262 -4.863531543364148e-09 8.250871593517072e-09 -4.863531543364148e-09 0.008746641588522579 3.9230904526310974e-09 8.250871593517072e-09 3.9230904526310974e-09 0.004264835685192584" pbc="T T T"
H        1.40307756       0.81006721      10.00000000        3       1.00000000       0.00000000       0.00000000       0.00000000       0.00000000       0.00000000       0.00000000
H        4.20923268       0.81006721      10.00000000        3       1.00000000       0.00000000       0.00000000       0.00000000       0.00000000       0.00000000       0.00000000
H        0.00000000       3.24026883      10.00000000        3       1.00000000       0.00000000       0.00000000       0.00000000       0.00000000       0.00000000       0.00000000
H        2.80615512       3.24026883      10.00000000        3       1.00000000       0.00000000       0.00000000       0.00000000       0.00000000       0.00000000       0.00000000
H        0.00000000       1.62013441      12.29121606        2       1.00000000       0.00000000       0.00000000       0.00000000       0.00000000       0.00000000       0.00000000
H        2.80615512       1.62013441      12.29121606        2       1.00000000       0.00000000       0.00000000       0.00000000       0.00000000       0.00000000       0.00000000
H        1.40307756       4.05033604      12.29121606        2       1.00000000       0.00000000       0.00000000       0.00000000       0.00000000       0.00000000       0.00000000
H        4.20923268       4.05033604      12.29121606        2       1.00000000       0.00000000       0.00000000       0.00000000       0.00000000       0.00000000       0.00000000
H        0.00000000       0.00000000      14.58243212        1       1.00000000       0.00000000       0.00000000       0.00000000       0.00000000       0.00000000       0.00000000
H        2.80615512       0.00000000      14.58243212        1       1.00000000       0.00000000       0.00000000       0.00000000       0.00000000       0.00000000       0.00000000
H        1.40307756       2.43020162      14.58243212        1       1.00000000       0.00000000       0.00000000       0.00000000       0.00000000       0.00000000       0.00000000
H        4.20923268       2.43020162      14.58243212        1       1.00000000       0.00000000       0.00000000       0.00000000       0.00000000       0.00000000       0.00000000
H        1.40307533       0.80207297      16.78197711        0       1.00000000       0.00000146       0.00000160      -0.00000057      -0.00001775       0.00000233      -0.00000837
H        5.60472319       3.23643359      16.80093727        0       1.00000000      -0.00000231      -0.00000154      -0.00000118       0.00000359       0.00000309       0.00000174
H        5.61015375       0.00047485      19.01825932        0       1.00000000       0.00000425       0.00000364       0.00000189      -0.00000170       0.00000257       0.00000083
H        4.20923185       0.82610990      16.79894236        0       1.00000000       0.00000199      -0.00000077       0.00000400       0.00001387      -0.00000363      -0.00000130
H        1.40307700       2.42643770      19.01650180        0       1.00000000      -0.00000161       0.00000048       0.00000518       0.00000304      -0.00000922      -0.00000139
H        2.80830535       0.00047130      19.01825703        0       1.00000000      -0.00000282      -0.00000325       0.00000507      -0.00000240       0.00000512       0.00000535
H        2.81373749       3.23643514      16.80093372        0       1.00000000      -0.00000251      -0.00000347       0.00000612      -0.00000021      -0.00000036      -0.00000439
19
Lattice="5.612310241546866 0.0 0.0 0.0 4.860403243099165 0.0 0.0 0.0 24.582432123328676" Properties=species:S:1:pos:R:3:tags:I:1:masses:R:1:momenta:R:3:forces:R:3 KEmax=24.559391461069055 iter=90217 volume=670.5618179858607 ns_energy=-12.53404906152063 last_walked_iter_clone=90184 energy=-12.53404906160962 stress="0.008709427100905262 -4.863531543364148e-09 8.250871593517072e-09 -4.863531543364148e-09 0.008746641588522579 3.9230904526310974e-09 8.250871593517072e-09 3.9230904526310974e-09 0.004264835685192584" pbc="T T T"
H        1.40307756       0.81006721      10.00000000        3       1.00000000       0.00000000       0.00000000       0.00000000       0.00000000       0.00000000       0.00000000
H        4.20923268       0.81006721      10.00000000        3       1.00000000       0.00000000       0.00000000       0.00000000       0.00000000       0.00000000       0.00000000
H        0.00000000       3.24026883      10.00000000        3       1.00000000       0.00000000       0.00000000       0.00000000       0.00000000       0.00000000       0.00000000
H        2.80615512       3.24026883      10.00000000        3       1.00000000       0.00000000       0.00000000       0.00000000       0.00000000       0.00000000       0.00000000
H        0.00000000       1.62013441      12.29121606        2       1.00000000       0.00000000       0.00000000       0.00000000       0.00000000       0.00000000       0.00000000
H        2.80615512       1.62013441      12.29121606        2       1.00000000       0.00000000       0.00000000       0.00000000       0.00000000       0.00000000       0.00000000
H        1.40307756       4.05033604      12.29121606        2       1.00000000       0.00000000       0.00000000       0.00000000       0.00000000       0.00000000       0.00000000
H        4.20923268       4.05033604      12.29121606        2       1.00000000       0.00000000       0.00000000       0.00000000       0.00000000       0.00000000       0.00000000
H        0.00000000       0.00000000      14.58243212        1       1.00000000       0.00000000       0.00000000       0.00000000       0.00000000       0.00000000       0.00000000
H        2.80615512       0.00000000      14.58243212        1       1.00000000       0.00000000       0.00000000       0.00000000       0.00000000       0.00000000       0.00000000
H        1.40307756       2.43020162      14.58243212        1       1.00000000       0.00000000       0.00000000       0.00000000       0.00000000       0.00000000       0.00000000
H        4.20923268       2.43020162      14.58243212        1       1.00000000       0.00000000       0.00000000       0.00000000       0.00000000       0.00000000       0.00000000
H        1.40307837       0.80207282      16.78198013        0       1.00000000      -0.00000141       0.00000083       0.00000788      -0.00001775       0.00000233      -0.00000837
H        5.60472689       3.23643204      16.80093840        0       1.00000000       0.00000179      -0.00000552       0.00000268       0.00000359       0.00000309       0.00000174
H        5.61015941       0.00046969      19.01825813        0       1.00000000      -0.00000390      -0.00000409      -0.00000148      -0.00000170       0.00000257       0.00000083
H        4.20923185       0.82610886      16.79894465        0       1.00000000      -0.00000088      -0.00000417       0.00000236       0.00001387      -0.00000363      -0.00000130
H        1.40307956       2.42643359      19.01650174        0       1.00000000      -0.00000072      -0.00000071      -0.00000108       0.00000304      -0.00000922      -0.00000139
H        2.80830709       0.00046992      19.01826135        0       1.00000000       0.00000375       0.00000195       0.00000292      -0.00000240       0.00000512       0.00000535
H        2.81373784       3.23643565      16.80093743        0       1.00000000      -0.00000187       0.00000148       0.00000341      -0.00000021      -0.00000036      -0.00000439
19
Lattice="5.612310241546866 0.0 0.0 0.0 4.860403243099165 0.0 0.0 0.0 24.582432123328676" Properties=species:S:1:pos:R:3:tags:I:1:masses:R:1:momenta:R:3:forces:R:3 KEmax=24.559391461069055 iter=90217 volume=670.5618179858607 ns_energy=-12.534049061519381 last_walked_iter_clone=90192 energy=-12.53404906160962 stress="0.008709427100905262 -4.863531543364148e-09 8.250871593517072e-09 -4.863531543364148e-09 0.008746641588522579 3.9230904526310974e-09 8.250871593517072e-09 3.9230904526310974e-09 0.004264835685192584" pbc="T T T"
H        1.40307756       0.81006721      10.00000000        3       1.00000000       0.00000000       0.00000000       0.00000000       0.00000000       0.00000000       0.00000000
H        4.20923268       0.81006721      10.00000000        3       1.00000000       0.00000000       0.00000000       0.00000000       0.00000000       0.00000000       0.00000000
H        0.00000000       3.24026883      10.00000000        3       1.00000000       0.00000000       0.00000000       0.00000000       0.00000000       0.00000000       0.00000000
H        2.80615512       3.24026883      10.00000000        3       1.00000000       0.00000000       0.00000000       0.00000000       0.00000000       0.00000000       0.00000000
H        0.00000000       1.62013441      12.29121606        2       1.00000000       0.00000000       0.00000000       0.00000000       0.00000000       0.00000000       0.00000000
H        2.80615512       1.62013441      12.29121606        2       1.00000000       0.00000000       0.00000000       0.00000000       0.00000000       0.00000000       0.00000000
H        1.40307756       4.05033604      12.29121606        2       1.00000000       0.00000000       0.00000000       0.00000000       0.00000000       0.00000000       0.00000000
H        4.20923268       4.05033604      12.29121606        2       1.00000000       0.00000000       0.00000000       0.00000000       0.00000000       0.00000000       0.00000000
H        0.00000000       0.00000000      14.58243212        1       1.00000000       0.00000000       0.00000000       0.00000000       0.00000000       0.00000000       0.00000000
H        2.80615512       0.00000000      14.58243212        1       1.00000000       0.00000000       0.00000000       0.00000000       0.00000000       0.00000000       0.00000000
H        1.40307756       2.43020162      14.58243212        1       1.00000000       0.00000000       0.00000000       0.00000000       0.00000000       0.00000000       0.00000000
H        4.20923268       2.43020162      14.58243212        1       1.00000000       0.00000000       0.00000000       0.00000000       0.00000000       0.00000000       0.00000000
H        1.40307711       0.80206916      16.78198172        0       1.00000000      -0.00000250       0.00000200       0.00000168      -0.00001775       0.00000233      -0.00000837
H        5.60472419       3.23643414      16.80093869        0       1.00000000       0.00000127      -0.00000021       0.00000119       0.00000359       0.00000309       0.00000174
H        5.61015678       0.00047359      19.01826016        0       1.00000000       0.00000190       0.00000145      -0.00000261      -0.00000170       0.00000257       0.00000083
H        4.20923382       0.82610867      16.79894514        0       1.00000000       0.00000212       0.00000214       0.00000574       0.00001387      -0.00000363      -0.00000130
H        1.40307514       2.42643403      19.01649786        0       1.00000000       0.00000265       0.00000243      -0.00000071       0.00000304      -0.00000922      -0.00000139
H        2.80830846       0.00047081      19.01826060        0       1.00000000       0.00000016      -0.00000565       0.00000393      -0.00000240       0.00000512       0.00000535
H        2.81373904       3.23643279      16.80093966        0       1.00000000       0.00000351      -0.00000098       0.00000311      -0.00000021      -0.00000036      -0.00000439
19
Lattice="5.612310241546866 0.0 0.0 0.0 4.860403243099165 0.0 0.0 0.0 24.582432123328676" Properties=species:S:1:pos:R:3:tags:I:1:masses:R:1:momenta:R:3:forces:R:3 KEmax=24.559391461069055 iter=90217 volume=670.5618179858607 ns_energy=-12.53404906152267 last_walked_iter_clone=90195 energy=-12.53404906160962 stress="0.008709427100905262 -4.863531543364148e-09 8.250871593517072e-09 -4.863531543364148e-09 0.008746641588522579 3.9230904526310974e-09 8.250871593517072e-09 3.9230904526310974e-09 0.004264835685192584" pbc="T T T"
H        1.40307756       0.81006721      10.00000000        3       1.00000000       0.00000000       0.00000000       0.00000000       0.00000000       0.00000000       0.00000000
H        4.20923268       0.81006721      10.00000000        3       1.00000000       0.00000000       0.00000000       0.00000000       0.00000000       0.00000000       0.00000000
H        0.00000000       3.24026883      10.00000000        3       1.00000000       0.00000000       0.00000000       0.00000000       0.00000000       0.00000000       0.00000000
H        2.80615512       3.24026883      10.00000000        3       1.00000000       0.00000000       0.00000000       0.00000000       0.00000000       0.00000000       0.00000000
H        0.00000000       1.62013441      12.29121606        2       1.00000000       0.00000000       0.00000000       0.00000000       0.00000000       0.00000000       0.00000000
H        2.80615512       1.62013441      12.29121606        2       1.00000000       0.00000000       0.00000000       0.00000000       0.00000000       0.00000000       0.00000000
H        1.40307756       4.05033604      12.29121606        2       1.00000000       0.00000000       0.00000000       0.00000000       0.00000000       0.00000000       0.00000000
H        4.20923268       4.05033604      12.29121606        2       1.00000000       0.00000000       0.00000000       0.00000000       0.00000000       0.00000000       0.00000000