17
Lattice="5.612310241546866 0.0 0.0 0.0 4.860403243099165 0.0 0.0 0.0 44.58243212332868" Properties=species:S:1:pos:R:3:tags:I:1:masses:R:1:momenta:R:3:forces:R:3 KEmax=21.974192359903892 iter=26509 volume=1216.1236359717223 set_wall=T ns_energy=-10.95365776722075 last_walked_iter_clone=26470 energy=-10.957406597590131 stress="0.020944327096224936 -0.00017168990140852602 0.0005548389148983102 -0.00017168990140852602 0.020803271491723153 0.0002197271161748908 0.0005548389148983102 0.0002197271161748908 0.01078643196135966" pbc="T T F"
H        1.40307756       0.81006721      20.00000000        3       1.00000000       0.00000000       0.00000000       0.00000000       0.00000000       0.00000000       0.00000000
H        4.20923268       0.81006721      20.00000000        3       1.00000000       0.00000000       0.00000000       0.00000000       0.00000000       0.00000000       0.00000000
H        0.00000000       3.24026883      20.00000000        3       1.00000000       0.00000000       0.00000000       0.00000000       0.00000000       0.00000000       0.00000000
H        2.80615512       3.24026883      20.00000000        3       1.00000000       0.00000000       0.00000000       0.00000000       0.00000000       0.00000000       0.00000000
H        0.00000000       1.62013441      22.29121606        2       1.00000000       0.00000000       0.00000000       0.00000000       0.00000000       0.00000000       0.00000000
H        2.80615512       1.62013441      22.29121606        2       1.00000000       0.00000000       0.00000000       0.00000000       0.00000000       0.00000000       0.00000000
H        1.40307756       4.05033604      22.29121606        2       1.00000000       0.00000000       0.00000000       0.00000000       0.00000000       0.00000000       0.00000000
H        4.20923268       4.05033604      22.29121606        2       1.00000000       0.00000000       0.00000000       0.00000000       0.00000000       0.00000000       0.00000000
H        0.00000000       0.00000000      24.58243212        1       1.00000000       0.00000000       0.00000000       0.00000000       0.00000000       0.00000000       0.00000000
H        2.80615512       0.00000000      24.58243212        1       1.00000000       0.00000000       0.00000000       0.00000000       0.00000000       0.00000000       0.00000000
H        1.40307756       2.43020162      24.58243212        1       1.00000000       0.00000000       0.00000000       0.00000000       0.00000000       0.00000000       0.00000000
H        4.20923268       2.43020162      24.58243212        1       1.00000000       0.00000000       0.00000000       0.00000000       0.00000000       0.00000000       0.00000000
H        5.61725736       1.65023475      26.79029936        0       1.00000000       0.04453418      -0.02033703       0.01904959       0.04618315      -0.06657978      -0.00885697
H        2.77008746       1.65807726      26.80665184        0       1.00000000      -0.00111256      -0.02764025      -0.04878079      -0.07144632      -0.17064955       0.04820585
H        4.23947964       2.41853443      29.03818399        0       1.00000000      -0.00164072       0.02075635      -0.00250484      -0.01258803      -0.01618450       0.02069509
H        4.19012483       4.08974648      26.80332250        0       1.00000000       0.02311601       0.03427334       0.00115911      -0.03856392       0.17430861       0.03457274
H        1.42089463       4.10092200      26.83099552        0       1.00000000       0.00087666       0.05552698       0.02043397       0.02669437       0.06933977      -0.04252254
17
Lattice="5.612310241546866 0.0 0.0 0.0 4.860403243099165 0.0 0.0 0.0 44.58243212332868" Properties=species:S:1:pos:R:3:tags:I:1:masses:R:1:momenta:R:3:forces:R:3 KEmax=21.974192359903892 iter=26509 volume=1216.1236359717223 set_wall=T ns_energy=-10.953689690511087 last_walked_iter_clone=26357 energy=-10.957406597590131 stress="0.020944327096224936 -0.00017168990140852602 0.0005548389148983102 -0.00017168990140852602 0.020803271491723153 0.0002197271161748908 0.0005548389148983102 0.0002197271161748908 0.01078643196135966" pbc="T T F"
H        1.40307756       0.81006721      20.00000000        3       1.00000000       0.00000000       0.00000000       0.00000000       0.00000000       0.00000000       0.00000000
H        4.20923268       0.81006721      20.00000000        3       1.00000000       0.00000000       0.00000000       0.00000000       0.00000000       0.00000000       0.00000000
H        0.00000000       3.24026883      20.00000000        3       1.00000000       0.00000000       0.00000000       0.00000000       0.00000000       0.00000000       0.00000000
H        2.80615512       3.24026883      20.00000000        3       1.00000000       0.00000000       0.00000000       0.00000000       0.00000000       0.00000000       0.00000000
H        0.00000000       1.62013441      22.29121606        2       1.00000000       0.00000000       0.00000000       0.00000000       0.00000000       0.00000000       0.00000000
H        2.80615512       1.62013441      22.29121606        2       1.00000000       0.00000000       0.00000000       0.00000000       0.00000000       0.00000000       0.00000000
H        1.40307756       4.05033604      22.29121606        2       1.00000000       0.00000000       0.00000000       0.00000000       0.00000000       0.00000000       0.00000000
H        4.20923268       4.05033604      22.29121606        2       1.00000000       0.00000000       0.00000000       0.00000000       0.00000000       0.00000000       0.00000000
H        0.00000000       0.00000000      24.58243212        1       1.00000000       0.00000000       0.00000000       0.00000000       0.00000000       0.00000000       0.00000000
H        2.80615512       0.00000000      24.58243212        1       1.00000000       0.00000000       0.00000000       0.00000000       0.00000000       0.00000000       0.00000000
H        1.40307756       2.43020162      24.58243212        1       1.00000000       0.00000000       0.00000000       0.00000000       0.00000000       0.00000000       0.00000000
H        4.20923268       2.43020162      24.58243212        1       1.00000000       0.00000000       0.00000000       0.00000000       0.00000000       0.00000000       0.00000000
H       -0.02553329       1.63064385      26.79510598        0       1.00000000       0.01015254      -0.03132788      -0.01649838       0.04618315      -0.06657978      -0.00885697
H        2.76897182       1.60879195      26.79823057        0       1.00000000      -0.02926468      -0.04729385      -0.08864943      -0.07144632      -0.17064955       0.04820585
H        4.19190609       2.39721999      29.00779726        0       1.00000000       0.01869064      -0.02965467      -0.01263073      -0.01258803      -0.01618450       0.02069509
H        4.19013227       4.06862578      26.81684639        0       1.00000000      -0.03187450       0.03061906       0.02638629      -0.03856392       0.17430861       0.03457274
H        1.36056610       4.03080741      26.82798107        0       1.00000000       0.03142379       0.04047425       0.01980439       0.02669437       0.06933977      -0.04252254
17
Lattice="5.612310241546866 0.0 0.0 0.0 4.860403243099165 0.0 0.0 0.0 44.58243212332868" Properties=species:S:1:pos:R:3:tags:I:1:masses:R:1:momenta:R:3:forces:R:3 KEmax=21.974192359903892 iter=26509 volume=1216.1236359717223 set_wall=T ns_energy=-10.953791054088855 last_walked_iter_clone=26383 energy=-10.957406597590131 stress="0.020944327096224936 -0.00017168990140852602 0.0005548389148983102 -0.00017168990140852602 0.020803271491723153 0.0002197271161748908 0.0005548389148983102 0.0002197271161748908 0.01078643196135966" pbc="T T F"
H        1.40307756       0.81006721      20.00000000        3       1.00000000       0.00000000       0.00000000       0.00000000       0.00000000       0.00000000       0.00000000
H        4.20923268       0.81006721      20.00000000        3       1.00000000       0.00000000       0.00000000       0.00000000       0.00000000       0.00000000       0.00000000
H        0.00000000       3.24026883      20.00000000        3       1.00000000       0.00000000       0.00000000       0.00000000       0.00000000       0.00000000       0.00000000
H        2.80615512       3.24026883      20.00000000        3       1.00000000       0.00000000       0.00000000       0.00000000       0.00000000       0.00000000       0.00000000
H        0.00000000       1.62013441      22.29121606        2       1.00000000       0.00000000       0.00000000       0.00000000       0.00000000       0.00000000       0.00000000
H        2.80615512       1.62013441      22.29121606        2       1.00000000       0.00000000       0.00000000       0.00000000       0.00000000       0.00000000       0.00000000
H        1.40307756       4.05033604      22.29121606        2       1.00000000       0.00000000       0.00000000       0.00000000       0.00000000       0.00000000       0.00000000
H        4.20923268       4.05033604      22.29121606        2       1.00000000       0.00000000       0.00000000       0.00000000       0.00000000       0.00000000       0.00000000
H        0.00000000       0.00000000      24.58243212        1       1.00000000       0.00000000       0.00000000       0.00000000       0.00000000       0.00000000       0.00000000
H        2.80615512       0.00000000      24.58243212        1       1.00000000       0.00000000       0.00000000       0.00000000       0.00000000       0.00000000       0.00000000
H        1.40307756       2.43020162      24.58243212        1       1.00000000       0.00000000       0.00000000       0.00000000       0.00000000       0.00000000       0.00000000
H        4.20923268       2.43020162      24.58243212        1       1.00000000       0.00000000       0.00000000       0.00000000       0.00000000       0.00000000       0.00000000
H        0.00775027       1.62121527      26.81816946        0       1.00000000       0.01579170      -0.02683106      -0.02436372       0.04618315      -0.06657978      -0.00885697
H        2.80513012       1.60524910      26.81469176        0       1.00000000      -0.05607168      -0.00979084       0.02786017      -0.07144632      -0.17064955       0.04820585
H        4.21608893       2.40937212      29.04533207        0       1.00000000      -0.06504025       0.00694040       0.05682892      -0.01258803      -0.01618450       0.02069509
H        4.23975302       4.07950608      26.82012497        0       1.00000000      -0.03285592      -0.05608793       0.00281404      -0.03856392       0.17430861       0.03457274
H        1.41844859       4.04658083      26.81355229        0       1.00000000      -0.01491433       0.01221707       0.00999826       0.02669437       0.06933977      -0.04252254
17
Lattice="5.612310241546866 0.0 0.0 0.0 4.860403243099165 0.0 0.0 0.0 44.58243212332868" Properties=species:S:1:pos:R:3:tags:I:1:masses:R:1:momenta:R:3:forces:R:3 KEmax=21.974192359903892 iter=26509 volume=1216.1236359717223 set_wall=T ns_energy=-10.953926558179582 last_walked_iter_clone=26464 energy=-10.957406597590131 stress="0.020944327096224936 -0.00017168990140852602 0.0005548389148983102 -0.00017168990140852602 0.020803271491723153 0.0002197271161748908 0.0005548389148983102 0.0002197271161748908 0.01078643196135966" pbc="T T F"
H        1.40307756       0.81006721      20.00000000        3       1.00000000       0.00000000       0.00000000       0.00000000       0.00000000       0.00000000       0.00000000
H        4.20923268       0.81006721      20.00000000        3       1.00000000       0.00000000       0.00000000       0.00000000       0.00000000       0.00000000       0.00000000
H        0.00000000       3.24026883      20.00000000        3       1.00000000       0.00000000       0.00000000       0.00000000       0.00000000       0.00000000       0.00000000
H        2.80615512       3.24026883      20.00000000        3       1.00000000       0.00000000       0.00000000       0.00000000       0.00000000       0.00000000       0.00000000
H        0.00000000       1.62013441      22.29121606        2       1.00000000       0.00000000       0.00000000       0.00000000       0.00000000       0.00000000       0.00000000
H        2.80615512       1.62013441      22.29121606        2       1.00000000       0.00000000       0.00000000       0.00000000       0.00000000       0.00000000       0.00000000
H        1.40307756       4.05033604      22.29121606        2       1.00000000       0.00000000       0.00000000       0.00000000       0.00000000       0.00000000       0.00000000
H        4.20923268       4.05033604      22.29121606        2       1.00000000       0.00000000       0.00000000       0.00000000       0.00000000       0.00000000       0.00000000
H        0.00000000       0.00000000      24.58243212        1       1.00000000       0.00000000       0.00000000       0.00000000       0.00000000       0.00000000       0.00000000
H        2.80615512       0.00000000      24.58243212        1       1.00000000       0.00000000       0.00000000       0.00000000       0.00000000       0.00000000       0.00000000
H        1.40307756       2.43020162      24.58243212        1       1.00000000       0.00000000       0.00000000       0.00000000       0.00000000       0.00000000       0.00000000
H        4.20923268       2.43020162      24.58243212        1       1.00000000       0.00000000       0.00000000       0.00000000       0.00000000       0.00000000       0.00000000
H        0.03236688       1.63216246      26.77528827        0       1.00000000       0.02269104       0.02480709      -0.00380912       0.04618315      -0.06657978      -0.00885697
H        2.82555167       1.60350703      26.77804810        0       1.00000000      -0.00285194       0.01266031       0.02393843      -0.07144632      -0.17064955       0.04820585
H        4.18526558       2.37672855      29.00364345        0       1.00000000      -0.04791201      -0.03765196      -0.03512264      -0.01258803      -0.01618450       0.02069509
H        4.24360314       4.05148034      26.80374838        0       1.00000000      -0.03825730       0.02609935       0.04218671      -0.03856392       0.17430861       0.03457274
H        1.46465926       4.02078709      26.86186320        0       1.00000000      -0.00645393       0.01101930      -0.01631023       0.02669437       0.06933977      -0.04252254
17
Lattice="5.612310241546866 0.0 0.0 0.0 4.860403243099165 0.0 0.0 0.0 44.58243212332868" Properties=species:S:1:pos:R:3:tags:I:1:masses:R:1:momenta:R:3:forces:R:3 KEmax=21.974192359903892 iter=26509 volume=1216.1236359717223 set_wall=T ns_energy=-10.953376083884812 last_walked_iter_clone=26497 energy=-10.957406597590131 stress="0.020944327096224936 -0.00017168990140852602 0.0005548389148983102 -0.00017168990140852602 0.020803271491723153 0.0002197271161748908 0.0005548389148983102 0.0002197271161748908 0.01078643196135966" pbc="T T F"
H        1.40307756       0.81006721      20.00000000        3       1.00000000       0.00000000       0.00000000       0.00000000       0.00000000       0.00000000       0.00000000
H        4.20923268       0.81006721      20.00000000        3       1.00000000       0.00000000       0.00000000       0.00000000       0.00000000       0.00000000       0.00000000
H        0.00000000       3.24026883      20.00000000        3       1.00000000       0.00000000       0.00000000       0.00000000       0.00000000       0.00000000       0.00000000
H        2.80615512       3.24026883      20.00000000        3       1.00000000       0.00000000       0.00000000       0.00000000       0.00000000       0.00000000       0.00000000
H        0.00000000       1.62013441      22.29121606        2       1.00000000       0.00000000       0.00000000       0.00000000       0.00000000       0.00000000       0.00000000
H        2.80615512       1.62013441      22.29121606        2       1.00000000       0.00000000       0.00000000       0.00000000       0.00000000       0.00000000       0.00000000
H        1.40307756       4.05033604      22.29121606        2       1.00000000       0.00000000       0.00000000       0.00000000       0.00000000       0.00000000       0.00000000
H        4.20923268       4.05033604      22.29121606        2       1.00000000       0.00000000       0.00000000       0.00000000       0.00000000       0.00000000       0.00000000
H        0.00000000       0.00000000      24.58243212        1       1.00000000       0.00000000       0.00000000       0.00000000       0.00000000       0.00000000       0.00000000
H        2.80615512       0.00000000      24.58243212        1       1.00000000       0.00000000       0.00000000       0.00000000       0.00000000       0.00000000       0.00000000
H        1.40307756       2.43020162      24.58243212        1       1.00000000       0.00000000       0.00000000       0.00000000       0.00000000       0.00000000       0.00000000
H        4.20923268       2.43020162      24.58243212        1       1.00000000       0.00000000       0.00000000       0.00000000       0.00000000       0.00000000       0.00000000
H        5.64554915       1.59216618      26.79630317        0       1.00000000       0.00321641       0.01868092       0.02658768       0.04618315      -0.06657978      -0.00885697
H        2.83781709       1.57904896      26.78945123        0       1.00000000       0.01378441       0.05208353       0.00112630      -0.07144632      -0.17064955       0.04820585
H        4.24470484       2.35393974      29.01679099        0       1.00000000      -0.03357463       0.02068004      -0.06778024      -0.01258803      -0.01618450       0.02069509
H        4.24367210       4.06065021      26.82316593        0       1.00000000       0.03016347       0.03555725      -0.03349390      -0.03856392       0.17430861       0.03457274
H        1.41521984       4.01308286      26.81530509        0       1.00000000       0.04831954       0.02257127       0.00756262       0.02669437       0.06933977      -0.04252254
17
Lattice="5.612310241546866 0.0 0.0 0.0 4.860403243099165 0.0 0.0 0.0 44.58243212332868" Properties=species:S:1:pos:R:3:tags:I:1:masses:R:1:momenta:R:3:forces:R:3 KEmax=21.974192359903892 iter=26509 volume=1216.1236359717223 set_wall=T ns_energy=-10.95335270940336 last_walked_iter_clone=26451 energy=-10.957406597590131 stress="0.020944327096224936 -0.00017168990140852602 0.0005548389148983102 -0.00017168990140852602 0.020803271491723153 0.0002197271161748908 0.0005548389148983102 0.0002197271161748908 0.01078643196135966" pbc="T T F"
H        1.40307756       0.81006721      20.00000000        3       1.00000000       0.00000000       0.00000000       0.00000000       0.00000000       0.00000000       0.00000000
H        4.20923268       0.81006721      20.00000000        3       1.00000000       0.00000000       0.00000000       0.00000000       0.00000000       0.00000000       0.00000000
H        0.00000000       3.24026883      20.00000000        3       1.00000000       0.00000000       0.00000000       0.00000000       0.00000000       0.00000000       0.00000000
H        2.80615512       3.24026883      20.00000000        3       1.00000000       0.00000000       0.00000000       0.00000000       0.00000000       0.00000000       0.00000000
H        0.00000000       1.62013441      22.29121606        2       1.00000000       0.00000000       0.00000000       0.00000000       0.00000000       0.00000000       0.00000000
H        2.80615512       1.62013441      22.29121606        2       1.00000000       0.00000000       0.00000000       0.00000000       0.00000000       0.00000000       0.00000000
H        1.40307756       4.05033604      22.29121606        2       1.00000000       0.00000000       0.00000000       0.00000000       0.00000000       0.00000000       0.00000000
H        4.20923268       4.05033604      22.29121606        2       1.00000000       0.00000000       0.00000000       0.00000000       0.00000000       0.00000000       0.00000000
H        0.00000000       0.00000000      24.58243212        1       1.00000000       0.00000000       0.00000000       0.00000000       0.00000000       0.00000000       0.00000000
H        2.80615512       0.00000000      24.58243212        1       1.00000000       0.00000000       0.00000000       0.00000000       0.00000000       0.00000000       0.00000000
H        1.40307756       2.43020162      24.58243212        1       1.00000000       0.00000000       0.00000000       0.00000000       0.00000000       0.00000000       0.00000000
H        4.20923268       2.43020162      24.58243212        1       1.00000000       0.00000000       0.00000000       0.00000000       0.00000000       0.00000000       0.00000000
H       -0.03528882       1.60403813      26.83280646        0       1.00000000      -0.03511138       0.00634505       0.01509099       0.04618315      -0.06657978      -0.00885697
H        2.76609497       1.59932363      26.79134330        0       1.00000000       0.03256799       0.00145608      -0.01076048      -0.07144632      -0.17064955       0.04820585
H        4.15353848       2.41491750      29.03569385        0       1.00000000      -0.02226149      -0.02876000       0.03244890      -0.01258803      -0.01618450       0.02069509
H        4.16763123       4.06800680      26.81967865        0       1.00000000      -0.04984855       0.02822992      -0.03135902      -0.03856392       0.17430861       0.03457274
H        1.41111413       4.04196916      26.85205372        0       1.00000000       0.00858733      -0.03463493       0.00511914       0.02669437       0.06933977      -0.04252254
17
Lattice="5.612310241546866 0.0 0.0 0.0 4.860403243099165 0.0 0.0 0.0 44.58243212332868" Properties=species:S:1:pos:R:3:tags:I:1:masses:R:1:momenta:R:3:forces:R:3 KEmax=21.974192359903892 iter=26509 volume=1216.1236359717223 set_wall=T ns_energy=-10.954235992245529 last_walked_iter_clone=26441 energy=-10.957406597590131 stress="0.020944327096224936 -0.00017168990140852602 0.0005548389148983102 -0.00017168990140852602 0.020803271491723153 0.0002197271161748908 0.0005548389148983102 0.0002197271161748908 0.01078643196135966" pbc="T T F"
H        1.40307756       0.81006721      20.00000000        3       1.00000000       0.00000000       0.00000000       0.00000000       0.00000000       0.00000000       0.00000000
H        4.20923268       0.81006721      20.00000000        3       1.00000000       0.00000000       0.00000000       0.00000000       0.00000000       0.00000000       0.00000000
H        0.00000000       3.24026883      20.00000000        3       1.00000000       0.00000000       0.00000000       0.00000000       0.00000000       0.00000000       0.00000000
H        2.80615512       3.24026883      20.00000000        3       1.00000000       0.00000000       0.00000000       0.00000000       0.00000000       0.00000000       0.00000000
H        0.00000000       1.62013441      22.29121606        2       1.00000000       0.00000000       0.00000000       0.00000000       0.00000000       0.00000000       0.00000000
H        2.80615512       1.62013441      22.29121606        2       1.00000000       0.00000000       0.00000000       0.00000000       0.00000000       0.00000000       0.00000000
H        1.40307756       4.05033604      22.29121606        2       1.00000000       0.00000000       0.00000000       0.00000000       0.00000000       0.00000000       0.00000000
H        4.20923268       4.05033604      22.29121606        2       1.00000000       0.00000000       0.00000000       0.00000000       0.00000000       0.00000000       0.00000000
H        0.00000000       0.00000000      24.58243212        1       1.00000000       0.00000000       0.00000000       0.00000000       0.00000000       0.00000000       0.00000000
H        2.80615512       0.00000000      24.58243212        1       1.00000000       0.00000000       0.00000000       0.00000000       0.00000000       0.00000000       0.00000000
H        1.40307756       2.43020162      24.58243212        1       1.00000000       0.00000000       0.00000000       0.00000000       0.00000000       0.00000000       0.00000000
H        4.20923268       2.43020162      24.58243212        1       1.00000000       0.00000000       0.00000000       0.00000000       0.00000000       0.00000000       0.00000000
H        0.01131880       1.61749890      26.79259016        0       1.00000000       0.02686098      -0.07424110      -0.04093561       0.04618315      -0.06657978      -0.00885697
H        2.82132899       1.64123115      26.79376301        0       1.00000000       0.06157700      -0.04529960       0.01269602      -0.07144632      -0.17064955       0.04820585
H        4.23247584       2.44254271      29.01005187        0       1.00000000      -0.01608778      -0.05786319      -0.03521892      -0.01258803      -0.01618450       0.02069509
H        4.20645227       4.07006255      26.80319238        0       1.00000000      -0.00273822      -0.00555152      -0.00943615      -0.03856392       0.17430861       0.03457274
H        1.38527104       4.06608443      26.85066839        0       1.00000000      -0.01291027       0.00205183       0.00020793       0.02669437       0.06933977      -0.04252254
17
Lattice="5.612310241546866 0.0 0.0 0.0 4.860403243099165 0.0 0.0 0.0 44.58243212332868" Properties=species:S:1:pos:R:3:tags:I:1:masses:R:1:momenta:R:3:forces:R:3 KEmax=21.974192359903892 iter=26509 volume=1216.1236359717223 set_wall=T ns_energy=-10.953704358634266 last_walked_iter_clone=26141 energy=-10.957406597590131 stress="0.020944327096224936 -0.00017168990140852602 0.0005548389148983102 -0.00017168990140852602 0.020803271491723153 0.0002197271161748908 0.0005548389148983102 0.0002197271161748908 0.01078643196135966" pbc="T T F"
H        1.40307756       0.81006721      20.00000000        3       1.00000000       0.00000000       0.00000000       0.00000000       0.00000000       0.00000000       0.00000000
H        4.20923268       0.81006721      20.00000000        3       1.00000000       0.00000000       0.00000000       0.00000000       0.00000000       0.00000000       0.00000000
H        0.00000000       3.24026883      20.00000000        3       1.00000000       0.00000000       0.00000000       0.00000000       0.00000000       0.00000000       0.00000000
H        2.80615512       3.24026883      20.00000000        3       1.00000000       0.00000000       0.00000000       0.00000000       0.00000000       0.00000000       0.00000000
H        0.00000000       1.62013441      22.29121606        2       1.00000000       0.00000000       0.00000000       0.00000000       0.00000000       0.00000000       0.00000000
H        2.80615512       1.62013441      22.29121606        2       1.00000000       0.00000000       0.00000000       0.00000000       0.00000000       0.00000000       0.00000000
H        1.40307756       4.05033604      22.29121606        2       1.00000000       0.00000000       0.00000000       0.00000000       0.00000000       0.00000000       0.00000000
H        4.20923268       4.05033604      22.29121606        2       1.00000000       0.00000000       0.00000000       0.00000000       0.00000000       0.00000000       0.00000000
H        0.00000000       0.00000000      24.58243212        1       1.00000000       0.00000000       0.00000000       0.00000000       0.00000000       0.00000000       0.00000000
H        2.80615512       0.00000000      24.58243212        1       1.00000000       0.00000000       0.00000000       0.00000000       0.00000000       0.00000000       0.00000000
H        1.40307756       2.43020162      24.58243212        1       1.00000000       0.00000000       0.00000000       0.00000000       0.00000000       0.00000000       0.00000000
H        4.20923268       2.43020162      24.58243212        1       1.00000000       0.00000000       0.00000000       0.00000000       0.00000000       0.00000000       0.00000000
H        5.62447642       1.57470364      26.79154433        0       1.00000000       0.02104933      -0.00646391       0.00223284       0.04618315      -0.06657978      -0.00885697
H        2.80610641       1.60020346      26.82987780        0       1.00000000       0.04378487      -0.00311640       0.03665251      -0.07144632      -0.17064955       0.04820585
H        4.28794562       2.30847209      29.01726850        0       1.00000000      -0.02059075      -0.02222034       0.00970926      -0.01258803      -0.01618450       0.02069509
H        4.23991614       4.02639270      26.82178695        0       1.00000000      -0.00622344      -0.03262820       0.02697218      -0.03856392       0.17430861       0.03457274
H        1.42242728       4.02350160      26.81345913        0       1.00000000       0.04724001       0.02558460      -0.03327408       0.02669437       0.06933977      -0.04252254
17
Lattice="5.612310241546866 0.0 0.0 0.0 4.860403243099165 0.0 0.0 0.0 44.58243212332868" Properties=species:S:1:pos:R:3:tags:I:1:masses:R:1:momenta:R:3:forces:R:3 KEmax=21.974192359903892 iter=26509 volume=1216.1236359717223 set_wall=T ns_energy=-10.953477470746886 last_walked_iter_clone=26392 energy=-10.957406597590131 stress="0.020944327096224936 -0.00017168990140852602 0.0005548389148983102 -0.00017168990140852602 0.020803271491723153 0.0002197271161748908 0.0005548389148983102 0.0002197271161748908 0.01078643196135966" pbc="T T F"
H        1.40307756       0.81006721      20.00000000        3       1.00000000       0.00000000       0.00000000       0.00000000       0.00000000       0.00000000       0.00000000