17
Lattice="5.612310241546866 0.0 0.0 0.0 4.860403243099165 0.0 0.0 0.0 44.58243212332868" Properties=species:S:1:pos:R:3:tags:I:1:masses:R:1:momenta:R:3 KEmax=21.974192359903892 iter=99 volume=1216.1236359717223 set_wall=T ns_energy=18.213243543125216 last_walked_iter_clone=31 ns_P=0.0 config_n_global=99 ns_KE=21.023988416747457 pbc="T T F"
H        1.40307756       0.81006721      20.00000000        3       1.00000000       0.00000000       0.00000000       0.00000000
H        4.20923268       0.81006721      20.00000000        3       1.00000000       0.00000000       0.00000000       0.00000000
H        0.00000000       3.24026883      20.00000000        3       1.00000000       0.00000000       0.00000000       0.00000000
H        2.80615512       3.24026883      20.00000000        3       1.00000000       0.00000000       0.00000000       0.00000000
H        0.00000000       1.62013441      22.29121606        2       1.00000000       0.00000000       0.00000000       0.00000000
H        2.80615512       1.62013441      22.29121606        2       1.00000000       0.00000000       0.00000000       0.00000000
H        1.40307756       4.05033604      22.29121606        2       1.00000000       0.00000000       0.00000000       0.00000000
H        4.20923268       4.05033604      22.29121606        2       1.00000000       0.00000000       0.00000000       0.00000000
H        0.00000000       0.00000000      24.58243212        1       1.00000000       0.00000000       0.00000000       0.00000000
H        2.80615512       0.00000000      24.58243212        1       1.00000000       0.00000000       0.00000000       0.00000000
H        1.40307756       2.43020162      24.58243212        1       1.00000000       0.00000000       0.00000000       0.00000000
H        4.20923268       2.43020162      24.58243212        1       1.00000000       0.00000000       0.00000000       0.00000000
H        0.98347021       1.85001263      40.25387439        0       1.00000000      -1.77208386      -1.06540571      -0.58957995
H        3.83047666       2.53488160      35.56551963        0       1.00000000       1.85273402       0.86604594       0.37587982
H        3.86075008       1.87525131      26.55457233        0       1.00000000      -0.70158731       0.28586797       0.44359029
H        3.70805256       0.93009732      41.24002631        0       1.00000000       5.45609448       0.77210088      -0.89675308
H        2.13378342       1.61595437      34.83975039        0       1.00000000      -0.22887695      -0.61817424      -0.85237476
17
Lattice="5.612310241546866 0.0 0.0 0.0 4.860403243099165 0.0 0.0 0.0 44.58243212332868" Properties=species:S:1:pos:R:3:tags:I:1:masses:R:1:momenta:R:3 KEmax=21.974192359903892 iter=199 volume=1216.1236359717223 set_wall=T ns_energy=12.535577150366386 last_walked_iter_clone=144 ns_P=0.0 config_n_global=199 ns_KE=20.87594777046678 pbc="T T F"
H        1.40307756       0.81006721      20.00000000        3       1.00000000       0.00000000       0.00000000       0.00000000
H        4.20923268       0.81006721      20.00000000        3       1.00000000       0.00000000       0.00000000       0.00000000
H        0.00000000       3.24026883      20.00000000        3       1.00000000       0.00000000       0.00000000       0.00000000
H        2.80615512       3.24026883      20.00000000        3       1.00000000       0.00000000       0.00000000       0.00000000
H        0.00000000       1.62013441      22.29121606        2       1.00000000       0.00000000       0.00000000       0.00000000
H        2.80615512       1.62013441      22.29121606        2       1.00000000       0.00000000       0.00000000       0.00000000
H        1.40307756       4.05033604      22.29121606        2       1.00000000       0.00000000       0.00000000       0.00000000
H        4.20923268       4.05033604      22.29121606        2       1.00000000       0.00000000       0.00000000       0.00000000
H        0.00000000       0.00000000      24.58243212        1       1.00000000       0.00000000       0.00000000       0.00000000
H        2.80615512       0.00000000      24.58243212        1       1.00000000       0.00000000       0.00000000       0.00000000
H        1.40307756       2.43020162      24.58243212        1       1.00000000       0.00000000       0.00000000       0.00000000
H        4.20923268       2.43020162      24.58243212        1       1.00000000       0.00000000       0.00000000       0.00000000
H        3.66666827       0.52537754      27.80524653        0       1.00000000       0.39038802      -1.83222225       1.34261585
H        3.75105437       2.25342481      36.61694349        0       1.00000000       2.10733072       0.41739257      -2.62905775
H        0.62870319       2.53263389      37.99157030        0       1.00000000      -1.27348439      -1.93436650      -3.13818445
H        0.86946955       4.04073313      26.88231538        0       1.00000000      -1.58430870      -0.25909817      -0.59707290
H        3.81844642       2.34438100      31.91833426        0       1.00000000      -0.95443431      -2.37539734       0.46257522
17
Lattice="5.612310241546866 0.0 0.0 0.0 4.860403243099165 0.0 0.0 0.0 44.58243212332868" Properties=species:S:1:pos:R:3:tags:I:1:masses:R:1:momenta:R:3 KEmax=21.974192359903892 iter=299 volume=1216.1236359717223 set_wall=T ns_energy=10.350276383613105 last_walked_iter_clone=242 ns_P=0.0 config_n_global=299 ns_KE=17.679618307197238 pbc="T T F"
H        1.40307756       0.81006721      20.00000000        3       1.00000000       0.00000000       0.00000000       0.00000000
H        4.20923268       0.81006721      20.00000000        3       1.00000000       0.00000000       0.00000000       0.00000000
H        0.00000000       3.24026883      20.00000000        3       1.00000000       0.00000000       0.00000000       0.00000000
H        2.80615512       3.24026883      20.00000000        3       1.00000000       0.00000000       0.00000000       0.00000000
H        0.00000000       1.62013441      22.29121606        2       1.00000000       0.00000000       0.00000000       0.00000000
H        2.80615512       1.62013441      22.29121606        2       1.00000000       0.00000000       0.00000000       0.00000000
H        1.40307756       4.05033604      22.29121606        2       1.00000000       0.00000000       0.00000000       0.00000000
H        4.20923268       4.05033604      22.29121606        2       1.00000000       0.00000000       0.00000000       0.00000000
H        0.00000000       0.00000000      24.58243212        1       1.00000000       0.00000000       0.00000000       0.00000000
H        2.80615512       0.00000000      24.58243212        1       1.00000000       0.00000000       0.00000000       0.00000000
H        1.40307756       2.43020162      24.58243212        1       1.00000000       0.00000000       0.00000000       0.00000000
H        4.20923268       2.43020162      24.58243212        1       1.00000000       0.00000000       0.00000000       0.00000000
H        2.15490820       0.87732293      32.89421616        0       1.00000000      -1.73337007      -1.43872025      -2.57598403
H        1.27347273       4.23052623      42.19678319        0       1.00000000       1.37622485       1.29787883      -1.86664042
H        0.97963210       1.97228872      41.76842277        0       1.00000000      -0.37847144       0.63246789      -0.87196380
H        4.54487988       1.25628815      36.86167930        0       1.00000000      -2.16872446      -1.87415971       0.76224169
H        4.08641000       4.64874510      27.93550488        0       1.00000000       1.01562912       1.79337322      -1.49602956
17
Lattice="5.612310241546866 0.0 0.0 0.0 4.860403243099165 0.0 0.0 0.0 44.58243212332868" Properties=species:S:1:pos:R:3:tags:I:1:masses:R:1:momenta:R:3 KEmax=21.974192359903892 iter=399 volume=1216.1236359717223 set_wall=T ns_energy=8.298625929377677 last_walked_iter_clone=339 ns_P=0.0 config_n_global=399 ns_KE=15.980506113000779 pbc="T T F"
H        1.40307756       0.81006721      20.00000000        3       1.00000000       0.00000000       0.00000000       0.00000000
H        4.20923268       0.81006721      20.00000000        3       1.00000000       0.00000000       0.00000000       0.00000000
H        0.00000000       3.24026883      20.00000000        3       1.00000000       0.00000000       0.00000000       0.00000000
H        2.80615512       3.24026883      20.00000000        3       1.00000000       0.00000000       0.00000000       0.00000000
H        0.00000000       1.62013441      22.29121606        2       1.00000000       0.00000000       0.00000000       0.00000000
H        2.80615512       1.62013441      22.29121606        2       1.00000000       0.00000000       0.00000000       0.00000000
H        1.40307756       4.05033604      22.29121606        2       1.00000000       0.00000000       0.00000000       0.00000000
H        4.20923268       4.05033604      22.29121606        2       1.00000000       0.00000000       0.00000000       0.00000000
H        0.00000000       0.00000000      24.58243212        1       1.00000000       0.00000000       0.00000000       0.00000000
H        2.80615512       0.00000000      24.58243212        1       1.00000000       0.00000000       0.00000000       0.00000000
H        1.40307756       2.43020162      24.58243212        1       1.00000000       0.00000000       0.00000000       0.00000000
H        4.20923268       2.43020162      24.58243212        1       1.00000000       0.00000000       0.00000000       0.00000000
H        0.04601547       2.96921962      26.49053667        0       1.00000000      -0.22067487      -0.87793544       2.93836037
H        5.14298920       3.33785759      34.50599849        0       1.00000000       0.43846893      -0.08291686      -0.15366072
H        0.25167943       0.97080672      43.19862180        0       1.00000000      -2.98889807      -0.30428026       0.19276844
H        0.20076561       0.80749225      33.94067234        0       1.00000000       0.52347132       0.76040743       1.18095405
H        2.37882230       3.25991591      30.74474156        0       1.00000000      -0.97717643      -1.96083760       2.48494082
17
Lattice="5.612310241546866 0.0 0.0 0.0 4.860403243099165 0.0 0.0 0.0 44.58243212332868" Properties=species:S:1:pos:R:3:tags:I:1:masses:R:1:momenta:R:3 KEmax=21.974192359903892 iter=499 volume=1216.1236359717223 set_wall=T ns_energy=6.791886850673681 last_walked_iter_clone=446 ns_P=0.0 config_n_global=499 ns_KE=13.451321199688815 pbc="T T F"
H        1.40307756       0.81006721      20.00000000        3       1.00000000       0.00000000       0.00000000       0.00000000
H        4.20923268       0.81006721      20.00000000        3       1.00000000       0.00000000       0.00000000       0.00000000
H        0.00000000       3.24026883      20.00000000        3       1.00000000       0.00000000       0.00000000       0.00000000
H        2.80615512       3.24026883      20.00000000        3       1.00000000       0.00000000       0.00000000       0.00000000
H        0.00000000       1.62013441      22.29121606        2       1.00000000       0.00000000       0.00000000       0.00000000
H        2.80615512       1.62013441      22.29121606        2       1.00000000       0.00000000       0.00000000       0.00000000
H        1.40307756       4.05033604      22.29121606        2       1.00000000       0.00000000       0.00000000       0.00000000
H        4.20923268       4.05033604      22.29121606        2       1.00000000       0.00000000       0.00000000       0.00000000
H        0.00000000       0.00000000      24.58243212        1       1.00000000       0.00000000       0.00000000       0.00000000
H        2.80615512       0.00000000      24.58243212        1       1.00000000       0.00000000       0.00000000       0.00000000
H        1.40307756       2.43020162      24.58243212        1       1.00000000       0.00000000       0.00000000       0.00000000
H        4.20923268       2.43020162      24.58243212        1       1.00000000       0.00000000       0.00000000       0.00000000
H        5.24894055       3.77586488      35.60955321        0       1.00000000       1.47305584       1.84716389       0.11150659
H        4.87368564       3.58791346      30.97842478        0       1.00000000       1.12296102       0.77734533      -2.15735952
H        2.07327494       1.14714461      40.14837496        0       1.00000000       1.23067433      -0.20434852      -0.90693203
H        4.09464609       4.39535662      32.85650214        0       1.00000000      -0.05187540       1.42088886      -1.26013985
H        3.35776193       1.36564142      37.32991133        0       1.00000000      -0.21547542      -0.33627900       2.93953537
17
Lattice="5.612310241546866 0.0 0.0 0.0 4.860403243099165 0.0 0.0 0.0 44.58243212332868" Properties=species:S:1:pos:R:3:tags:I:1:masses:R:1:momenta:R:3 KEmax=21.974192359903892 iter=599 volume=1216.1236359717223 set_wall=T ns_energy=5.27171294973265 last_walked_iter_clone=457 ns_P=0.0 config_n_global=599 ns_KE=13.353432149402732 pbc="T T F"
H        1.40307756       0.81006721      20.00000000        3       1.00000000       0.00000000       0.00000000       0.00000000
H        4.20923268       0.81006721      20.00000000        3       1.00000000       0.00000000       0.00000000       0.00000000
H        0.00000000       3.24026883      20.00000000        3       1.00000000       0.00000000       0.00000000       0.00000000
H        2.80615512       3.24026883      20.00000000        3       1.00000000       0.00000000       0.00000000       0.00000000
H        0.00000000       1.62013441      22.29121606        2       1.00000000       0.00000000       0.00000000       0.00000000
H        2.80615512       1.62013441      22.29121606        2       1.00000000       0.00000000       0.00000000       0.00000000
H        1.40307756       4.05033604      22.29121606        2       1.00000000       0.00000000       0.00000000       0.00000000
H        4.20923268       4.05033604      22.29121606        2       1.00000000       0.00000000       0.00000000       0.00000000
H        0.00000000       0.00000000      24.58243212        1       1.00000000       0.00000000       0.00000000       0.00000000
H        2.80615512       0.00000000      24.58243212        1       1.00000000       0.00000000       0.00000000       0.00000000
H        1.40307756       2.43020162      24.58243212        1       1.00000000       0.00000000       0.00000000       0.00000000
H        4.20923268       2.43020162      24.58243212        1       1.00000000       0.00000000       0.00000000       0.00000000
H       -0.08413958       0.78279542      27.24237344        0       1.00000000      -1.14957189       2.00193240      -0.45736128
H        3.50611062       4.06001714      28.47179129        0       1.00000000      -0.69723941       0.95295943      -1.81619286
H        5.32784296       3.93287051      44.33093446        0       1.00000000       0.33617545      -0.35537702      -1.36976498
H        1.46920419       1.13715969      30.79884561        0       1.00000000      -2.39465285      -2.16953185      -0.87014943
H        2.35171568       2.50605941      35.04460337        0       1.00000000      -0.25076427      -1.55030319       0.83386379
17
Lattice="5.612310241546866 0.0 0.0 0.0 4.860403243099165 0.0 0.0 0.0 44.58243212332868" Properties=species:S:1:pos:R:3:tags:I:1:masses:R:1:momenta:R:3 KEmax=21.974192359903892 iter=699 volume=1216.1236359717223 set_wall=T ns_energy=4.090707122929372 last_walked_iter_clone=517 ns_P=0.0 config_n_global=699 ns_KE=12.592199533501516 pbc="T T F"
H        1.40307756       0.81006721      20.00000000        3       1.00000000       0.00000000       0.00000000       0.00000000
H        4.20923268       0.81006721      20.00000000        3       1.00000000       0.00000000       0.00000000       0.00000000
H        0.00000000       3.24026883      20.00000000        3       1.00000000       0.00000000       0.00000000       0.00000000
H        2.80615512       3.24026883      20.00000000        3       1.00000000       0.00000000       0.00000000       0.00000000
H        0.00000000       1.62013441      22.29121606        2       1.00000000       0.00000000       0.00000000       0.00000000
H        2.80615512       1.62013441      22.29121606        2       1.00000000       0.00000000       0.00000000       0.00000000
H        1.40307756       4.05033604      22.29121606        2       1.00000000       0.00000000       0.00000000       0.00000000
H        4.20923268       4.05033604      22.29121606        2       1.00000000       0.00000000       0.00000000       0.00000000
H        0.00000000       0.00000000      24.58243212        1       1.00000000       0.00000000       0.00000000       0.00000000
H        2.80615512       0.00000000      24.58243212        1       1.00000000       0.00000000       0.00000000       0.00000000
H        1.40307756       2.43020162      24.58243212        1       1.00000000       0.00000000       0.00000000       0.00000000
H        4.20923268       2.43020162      24.58243212        1       1.00000000       0.00000000       0.00000000       0.00000000
H        3.64498779       2.84047951      40.16819573        0       1.00000000       3.38461174      -0.35826091       0.12572062
H        4.41175707       0.48585743      40.83186845        0       1.00000000       0.32469375      -1.34997050      -0.50428055
H        2.46457781       1.43812539      27.08632113        0       1.00000000       1.46399783      -0.72019362       0.39605690
H       -0.24779868       4.35731617      28.88856971        0       1.00000000      -2.45082746      -0.30694516       1.35406610
H        3.17102918       3.96289724      26.82119426        0       1.00000000      -0.35655448      -0.32706710       0.64443888
17
Lattice="5.612310241546866 0.0 0.0 0.0 4.860403243099165 0.0 0.0 0.0 44.58243212332868" Properties=species:S:1:pos:R:3:tags:I:1:masses:R:1:momenta:R:3 KEmax=21.974192359903892 iter=799 volume=1216.1236359717223 set_wall=T ns_energy=3.0673513475910865 last_walked_iter_clone=741 ns_P=0.0 config_n_global=799 ns_KE=10.860760991412077 pbc="T T F"
H        1.40307756       0.81006721      20.00000000        3       1.00000000       0.00000000       0.00000000       0.00000000
H        4.20923268       0.81006721      20.00000000        3       1.00000000       0.00000000       0.00000000       0.00000000
H        0.00000000       3.24026883      20.00000000        3       1.00000000       0.00000000       0.00000000       0.00000000
H        2.80615512       3.24026883      20.00000000        3       1.00000000       0.00000000       0.00000000       0.00000000
H        0.00000000       1.62013441      22.29121606        2       1.00000000       0.00000000       0.00000000       0.00000000
H        2.80615512       1.62013441      22.29121606        2       1.00000000       0.00000000       0.00000000       0.00000000
H        1.40307756       4.05033604      22.29121606        2       1.00000000       0.00000000       0.00000000       0.00000000
H        4.20923268       4.05033604      22.29121606        2       1.00000000       0.00000000       0.00000000       0.00000000
H        0.00000000       0.00000000      24.58243212        1       1.00000000       0.00000000       0.00000000       0.00000000
H        2.80615512       0.00000000      24.58243212        1       1.00000000       0.00000000       0.00000000       0.00000000
H        1.40307756       2.43020162      24.58243212        1       1.00000000       0.00000000       0.00000000       0.00000000
H        4.20923268       2.43020162      24.58243212        1       1.00000000       0.00000000       0.00000000       0.00000000
H        3.74062392       2.82194410      44.05213185        0       1.00000000      -0.28708459      -0.16325292      -1.22047562
H        2.66515614       2.61839024      28.60973728        0       1.00000000       1.02080248       1.23422774      -1.76909187
H        1.75587779       2.75199755      36.63671695        0       1.00000000       0.52214188       0.50936441       0.68721382
H        1.24709776       0.69982037      38.63568959        0       1.00000000       3.20833656      -0.18152840      -0.38735413
H        5.48260181       2.69983128      41.88522989        0       1.00000000       0.93620770      -1.06636437      -0.96616050
17
Lattice="5.612310241546866 0.0 0.0 0.0 4.860403243099165 0.0 0.0 0.0 44.58243212332868" Properties=species:S:1:pos:R:3:tags:I:1:masses:R:1:momenta:R:3 KEmax=21.974192359903892 iter=899 volume=1216.1236359717223 set_wall=T ns_energy=2.0959864119869387 last_walked_iter_clone=834 ns_P=0.0 config_n_global=899 ns_KE=9.49870061166145 pbc="T T F"
H        1.40307756       0.81006721      20.00000000        3       1.00000000       0.00000000       0.00000000       0.00000000
H        4.20923268       0.81006721      20.00000000        3       1.00000000       0.00000000       0.00000000       0.00000000
H        0.00000000       3.24026883      20.00000000        3       1.00000000       0.00000000       0.00000000       0.00000000
H        2.80615512       3.24026883      20.00000000        3       1.00000000       0.00000000       0.00000000       0.00000000
H        0.00000000       1.62013441      22.29121606        2       1.00000000       0.00000000       0.00000000       0.00000000
H        2.80615512       1.62013441      22.29121606        2       1.00000000       0.00000000       0.00000000       0.00000000
H        1.40307756       4.05033604      22.29121606        2       1.00000000       0.00000000       0.00000000       0.00000000
H        4.20923268       4.05033604      22.29121606        2       1.00000000       0.00000000       0.00000000       0.00000000
H        0.00000000       0.00000000      24.58243212        1       1.00000000       0.00000000       0.00000000       0.00000000
H        2.80615512       0.00000000      24.58243212        1       1.00000000       0.00000000       0.00000000       0.00000000
H        1.40307756       2.43020162      24.58243212        1       1.00000000       0.00000000       0.00000000       0.00000000
H        4.20923268       2.43020162      24.58243212        1       1.00000000       0.00000000       0.00000000       0.00000000
H        1.74695185       2.78386075      35.15703151        0       1.00000000       2.08596059      -0.19464709      -0.33549431
H        2.37818183      -0.25831819      28.99446910        0       1.00000000       0.33973161       1.26901936       1.74065352
H        4.58588218       3.93444216      33.45156832        0       1.00000000      -0.08163832      -0.11821698      -0.96591880
H        0.91678875       1.42131713      33.40013054        0       1.00000000       0.38442521      -1.56816781      -0.81921402
H        3.70968047       3.80484629      27.32952538        0       1.00000000      -1.87384266      -0.48062508      -1.32892916
17
Lattice="5.612310241546866 0.0 0.0 0.0 4.860403243099165 0.0 0.0 0.0 44.58243212332868" Properties=species:S:1:pos:R:3:tags:I:1:masses:R:1:momenta:R:3 KEmax=21.974192359903892 iter=999 volume=1216.1236359717223 set_wall=T ns_energy=1.2473434275312134 ns_P=0.0 config_n_global=999 ns_KE=8.900402860211122 pbc="T T F"
H        1.40307756       0.81006721      20.00000000        3       1.00000000       0.00000000       0.00000000       0.00000000
H        4.20923268       0.81006721      20.00000000        3       1.00000000       0.00000000       0.00000000       0.00000000
H        0.00000000       3.24026883      20.00000000        3       1.00000000       0.00000000       0.00000000       0.00000000
H        2.80615512       3.24026883      20.00000000        3       1.00000000       0.00000000       0.00000000       0.00000000
H        0.00000000       1.62013441      22.29121606        2       1.00000000       0.00000000       0.00000000       0.00000000
H        2.80615512       1.62013441      22.29121606        2       1.00000000       0.00000000       0.00000000       0.00000000
H        1.40307756       4.05033604      22.29121606        2       1.00000000       0.00000000       0.00000000       0.00000000
H        4.20923268       4.05033604      22.29121606        2       1.00000000       0.00000000       0.00000000       0.00000000
H        0.00000000       0.00000000      24.58243212        1       1.00000000       0.00000000       0.00000000       0.00000000
H        2.80615512       0.00000000      24.58243212        1       1.00000000       0.00000000       0.00000000       0.00000000
H        1.40307756       2.43020162      24.58243212        1       1.00000000       0.00000000       0.00000000       0.00000000
H        4.20923268       2.43020162      24.58243212        1       1.00000000       0.00000000       0.00000000       0.00000000
H        1.61517317       1.74102016      29.88079823        0       1.00000000      -0.88731651       1.12249788      -2.72959979
H        2.72207016       3.26878194      37.16392189        0       1.00000000      -0.07265556      -1.01611463       0.02782908
H        5.55469501       0.50180521      32.78341321        0       1.00000000      -0.92044533       1.31694121      -0.20182429
H        0.36074626       2.36708434      34.57171770        0       1.00000000       1.20632802       0.67072629      -0.18760597
H        1.58997573       1.27454728      36.60530267        0       1.00000000       0.25416733       0.27432192      -1.60055583
17
Lattice="5.612310241546866 0.0 0.0 0.0 4.860403243099165 0.0 0.0 0.0 44.58243212332868" Properties=species:S:1:pos:R:3:tags:I:1:masses:R:1:momenta:R:3 KEmax=21.974192359903892 iter=1099 volume=1216.1236359717223 set_wall=T ns_energy=0.4775543448392149 last_walked_iter_clone=895 ns_P=0.0 config_n_global=1099 ns_KE=8.211484063032739 pbc="T T F"
H        1.40307756       0.81006721      20.00000000        3       1.00000000       0.00000000       0.00000000       0.00000000
H        4.20923268       0.81006721      20.00000000        3       1.00000000       0.00000000       0.00000000       0.00000000
H        0.00000000       3.24026883      20.00000000        3       1.00000000       0.00000000       0.00000000       0.00000000
H        2.80615512       3.24026883      20.00000000        3       1.00000000       0.00000000       0.00000000       0.00000000
H        0.00000000       1.62013441      22.29121606        2       1.00000000       0.00000000       0.00000000       0.00000000
H        2.80615512       1.62013441      22.29121606        2       1.00000000       0.00000000       0.00000000       0.00000000
H        1.40307756       4.05033604      22.29121606        2       1.00000000       0.00000000       0.00000000       0.00000000
H        4.20923268       4.05033604      22.29121606        2       1.00000000       0.00000000       0.00000000       0.00000000
H        0.00000000       0.00000000      24.58243212        1       1.00000000       0.00000000       0.00000000       0.00000000
H        2.80615512       0.00000000      24.58243212        1       1.00000000       0.00000000       0.00000000       0.00000000
H        1.40307756       2.43020162      24.58243212        1       1.00000000       0.00000000       0.00000000       0.00000000
H        4.20923268       2.43020162      24.58243212        1       1.00000000       0.00000000       0.00000000       0.00000000
H        2.26705929       4.57887315      43.31368237        0       1.00000000       1.91546896       1.52877353       0.02805228
H        4.88226343       4.59512956      38.42657660        0       1.00000000      -0.00147862       0.09808436      -0.67119586
H        4.81390053       1.95325882      34.10184909        0       1.00000000      -2.26196708       1.03326513      -0.77685966
H        1.67480016       1.55705109      41.42297225        0       1.00000000      -1.32433616       0.25734034      -0.32344171
H        2.47503325       1.85415299      28.10961148        0       1.00000000      -0.71249563      -0.62265545       0.59007389
17
Lattice="5.612310241546866 0.0 0.0 0.0 4.860403243099165 0.0 0.0 0.0 44.58243212332868" Properties=species:S:1:pos:R:3:tags:I:1:masses:R:1:momenta:R:3 KEmax=21.974192359903892 iter=1199 volume=1216.1236359717223 set_wall=T ns_energy=-0.16879005876268707 last_walked_iter_clone=1148 ns_P=0.0 config_n_global=1199 ns_KE=7.455223913336585 pbc="T T F"
H        1.40307756       0.81006721      20.00000000        3       1.00000000       0.00000000       0.00000000       0.00000000
H        4.20923268       0.81006721      20.00000000        3       1.00000000       0.00000000       0.00000000       0.00000000
H        0.00000000       3.24026883      20.00000000        3       1.00000000       0.00000000       0.00000000       0.00000000
H        2.80615512       3.24026883      20.00000000        3       1.00000000       0.00000000       0.00000000       0.00000000
H        0.00000000       1.62013441      22.29121606        2       1.00000000       0.00000000       0.00000000       0.00000000
H        2.80615512       1.62013441      22.29121606        2       1.00000000       0.00000000       0.00000000       0.00000000
H        1.40307756       4.05033604      22.29121606        2       1.00000000       0.00000000       0.00000000       0.00000000
H        4.20923268       4.05033604      22.29121606        2       1.00000000       0.00000000       0.00000000       0.00000000
H        0.00000000       0.00000000      24.58243212        1       1.00000000       0.00000000       0.00000000       0.00000000
H        2.80615512       0.00000000      24.58243212        1       1.00000000       0.00000000       0.00000000       0.00000000