17
Lattice="5.612310241546866 0.0 0.0 0.0 4.860403243099165 0.0 0.0 0.0 44.58243212332868" Properties=species:S:1:pos:R:3:tags:I:1:masses:R:1:momenta:R:3:forces:R:3 KEmax=21.974192359903892 iter=50119 volume=1216.1236359717223 set_wall=T ns_energy=-10.96665328778382 last_walked_iter_clone=50050 energy=-10.966659369377274 stress="0.021123759834277396 6.554481759612441e-07 -1.8060591540337218e-05 6.554481759612441e-07 0.02119987195006596 -1.195147205876683e-05 -1.8060591540337218e-05 -1.195147205876683e-05 0.011517960201116952" pbc="T T F"
H        1.40307756       0.81006721      20.00000000        3       1.00000000       0.00000000       0.00000000       0.00000000       0.00000000       0.00000000       0.00000000
H        4.20923268       0.81006721      20.00000000        3       1.00000000       0.00000000       0.00000000       0.00000000       0.00000000       0.00000000       0.00000000
H        0.00000000       3.24026883      20.00000000        3       1.00000000       0.00000000       0.00000000       0.00000000       0.00000000       0.00000000       0.00000000
H        2.80615512       3.24026883      20.00000000        3       1.00000000       0.00000000       0.00000000       0.00000000       0.00000000       0.00000000       0.00000000
H        0.00000000       1.62013441      22.29121606        2       1.00000000       0.00000000       0.00000000       0.00000000       0.00000000       0.00000000       0.00000000
H        2.80615512       1.62013441      22.29121606        2       1.00000000       0.00000000       0.00000000       0.00000000       0.00000000       0.00000000       0.00000000
H        1.40307756       4.05033604      22.29121606        2       1.00000000       0.00000000       0.00000000       0.00000000       0.00000000       0.00000000       0.00000000
H        4.20923268       4.05033604      22.29121606        2       1.00000000       0.00000000       0.00000000       0.00000000       0.00000000       0.00000000       0.00000000
H        0.00000000       0.00000000      24.58243212        1       1.00000000       0.00000000       0.00000000       0.00000000       0.00000000       0.00000000       0.00000000
H        2.80615512       0.00000000      24.58243212        1       1.00000000       0.00000000       0.00000000       0.00000000       0.00000000       0.00000000       0.00000000
H        1.40307756       2.43020162      24.58243212        1       1.00000000       0.00000000       0.00000000       0.00000000       0.00000000       0.00000000       0.00000000
H        4.20923268       2.43020162      24.58243212        1       1.00000000       0.00000000       0.00000000       0.00000000       0.00000000       0.00000000       0.00000000
H        0.00692375       1.61594870      26.79594671        0       1.00000000       0.00027551      -0.00295621      -0.00044533       0.00114081      -0.00033449      -0.00025585
H        2.79820148       1.61568939      26.79616651        0       1.00000000      -0.00015689       0.00051355       0.00013171      -0.00143313       0.00035470      -0.00252619
H        4.21071701       2.43356288      29.01386134        0       1.00000000       0.00052075       0.00010760       0.00012479       0.00087790       0.00094096      -0.00190731
H        4.20955311       4.06685409      26.79952219        0       1.00000000      -0.00070039       0.00156204      -0.00118759      -0.00071348      -0.00266868       0.00054819
H        1.40339345       4.04067678      26.83218240        0       1.00000000       0.00067385      -0.00039737      -0.00007891       0.00123384       0.00206282      -0.00274162
17
Lattice="5.612310241546866 0.0 0.0 0.0 4.860403243099165 0.0 0.0 0.0 44.58243212332868" Properties=species:S:1:pos:R:3:tags:I:1:masses:R:1:momenta:R:3:forces:R:3 KEmax=21.974192359903892 iter=50119 volume=1216.1236359717223 set_wall=T ns_energy=-10.966653057830804 last_walked_iter_clone=50091 energy=-10.966659369377274 stress="0.021123759834277396 6.554481759612441e-07 -1.8060591540337218e-05 6.554481759612441e-07 0.02119987195006596 -1.195147205876683e-05 -1.8060591540337218e-05 -1.195147205876683e-05 0.011517960201116952" pbc="T T F"
H        1.40307756       0.81006721      20.00000000        3       1.00000000       0.00000000       0.00000000       0.00000000       0.00000000       0.00000000       0.00000000
H        4.20923268       0.81006721      20.00000000        3       1.00000000       0.00000000       0.00000000       0.00000000       0.00000000       0.00000000       0.00000000
H        0.00000000       3.24026883      20.00000000        3       1.00000000       0.00000000       0.00000000       0.00000000       0.00000000       0.00000000       0.00000000
H        2.80615512       3.24026883      20.00000000        3       1.00000000       0.00000000       0.00000000       0.00000000       0.00000000       0.00000000       0.00000000
H        0.00000000       1.62013441      22.29121606        2       1.00000000       0.00000000       0.00000000       0.00000000       0.00000000       0.00000000       0.00000000
H        2.80615512       1.62013441      22.29121606        2       1.00000000       0.00000000       0.00000000       0.00000000       0.00000000       0.00000000       0.00000000
H        1.40307756       4.05033604      22.29121606        2       1.00000000       0.00000000       0.00000000       0.00000000       0.00000000       0.00000000       0.00000000
H        4.20923268       4.05033604      22.29121606        2       1.00000000       0.00000000       0.00000000       0.00000000       0.00000000       0.00000000       0.00000000
H        0.00000000       0.00000000      24.58243212        1       1.00000000       0.00000000       0.00000000       0.00000000       0.00000000       0.00000000       0.00000000
H        2.80615512       0.00000000      24.58243212        1       1.00000000       0.00000000       0.00000000       0.00000000       0.00000000       0.00000000       0.00000000
H        1.40307756       2.43020162      24.58243212        1       1.00000000       0.00000000       0.00000000       0.00000000       0.00000000       0.00000000       0.00000000
H        4.20923268       2.43020162      24.58243212        1       1.00000000       0.00000000       0.00000000       0.00000000       0.00000000       0.00000000       0.00000000
H        0.00760988       1.61678191      26.79688999        0       1.00000000      -0.00030494       0.00011875       0.00019929       0.00114081      -0.00033449      -0.00025585
H        2.79949135       1.61723439      26.79537415        0       1.00000000      -0.00086124       0.00182118       0.00044336      -0.00143313       0.00035470      -0.00252619
H        4.20811626       2.43069670      29.01404058        0       1.00000000       0.00074243       0.00010918      -0.00031445       0.00087790       0.00094096      -0.00190731
H        4.20894761       4.06791733      26.80067322        0       1.00000000      -0.00000992      -0.00110258      -0.00047002      -0.00071348      -0.00266868       0.00054819
H        1.40321504       4.04103921      26.83309381        0       1.00000000       0.00100456       0.00046897       0.00104590       0.00123384       0.00206282      -0.00274162
17
Lattice="5.612310241546866 0.0 0.0 0.0 4.860403243099165 0.0 0.0 0.0 44.58243212332868" Properties=species:S:1:pos:R:3:tags:I:1:masses:R:1:momenta:R:3:forces:R:3 KEmax=21.974192359903892 iter=50119 volume=1216.1236359717223 set_wall=T ns_energy=-10.966653072367226 last_walked_iter_clone=49996 energy=-10.966659369377274 stress="0.021123759834277396 6.554481759612441e-07 -1.8060591540337218e-05 6.554481759612441e-07 0.02119987195006596 -1.195147205876683e-05 -1.8060591540337218e-05 -1.195147205876683e-05 0.011517960201116952" pbc="T T F"
H        1.40307756       0.81006721      20.00000000        3       1.00000000       0.00000000       0.00000000       0.00000000       0.00000000       0.00000000       0.00000000
H        4.20923268       0.81006721      20.00000000        3       1.00000000       0.00000000       0.00000000       0.00000000       0.00000000       0.00000000       0.00000000
H        0.00000000       3.24026883      20.00000000        3       1.00000000       0.00000000       0.00000000       0.00000000       0.00000000       0.00000000       0.00000000
H        2.80615512       3.24026883      20.00000000        3       1.00000000       0.00000000       0.00000000       0.00000000       0.00000000       0.00000000       0.00000000
H        0.00000000       1.62013441      22.29121606        2       1.00000000       0.00000000       0.00000000       0.00000000       0.00000000       0.00000000       0.00000000
H        2.80615512       1.62013441      22.29121606        2       1.00000000       0.00000000       0.00000000       0.00000000       0.00000000       0.00000000       0.00000000
H        1.40307756       4.05033604      22.29121606        2       1.00000000       0.00000000       0.00000000       0.00000000       0.00000000       0.00000000       0.00000000
H        4.20923268       4.05033604      22.29121606        2       1.00000000       0.00000000       0.00000000       0.00000000       0.00000000       0.00000000       0.00000000
H        0.00000000       0.00000000      24.58243212        1       1.00000000       0.00000000       0.00000000       0.00000000       0.00000000       0.00000000       0.00000000
H        2.80615512       0.00000000      24.58243212        1       1.00000000       0.00000000       0.00000000       0.00000000       0.00000000       0.00000000       0.00000000
H        1.40307756       2.43020162      24.58243212        1       1.00000000       0.00000000       0.00000000       0.00000000       0.00000000       0.00000000       0.00000000
H        4.20923268       2.43020162      24.58243212        1       1.00000000       0.00000000       0.00000000       0.00000000       0.00000000       0.00000000       0.00000000
H        0.00763821       1.61623658      26.79743853        0       1.00000000       0.00189353       0.00136564       0.00171316       0.00114081      -0.00033449      -0.00025585
H        2.79969486       1.61608318      26.79623628        0       1.00000000      -0.00017243       0.00139395       0.00107433      -0.00143313       0.00035470      -0.00252619
H        4.20851645       2.43402415      29.01431291        0       1.00000000       0.00014289      -0.00003658      -0.00117129       0.00087790       0.00094096      -0.00190731
H        4.20987511       4.06794056      26.80014414        0       1.00000000      -0.00024009       0.00033904      -0.00024894      -0.00071348      -0.00266868       0.00054819
H        1.40353395       4.04089896      26.83263307        0       1.00000000       0.00122435      -0.00075247       0.00015472       0.00123384       0.00206282      -0.00274162
17
Lattice="5.612310241546866 0.0 0.0 0.0 4.860403243099165 0.0 0.0 0.0 44.58243212332868" Properties=species:S:1:pos:R:3:tags:I:1:masses:R:1:momenta:R:3:forces:R:3 KEmax=21.974192359903892 iter=50119 volume=1216.1236359717223 set_wall=T ns_energy=-10.966653220540374 last_walked_iter_clone=50106 energy=-10.966659369377274 stress="0.021123759834277396 6.554481759612441e-07 -1.8060591540337218e-05 6.554481759612441e-07 0.02119987195006596 -1.195147205876683e-05 -1.8060591540337218e-05 -1.195147205876683e-05 0.011517960201116952" pbc="T T F"
H        1.40307756       0.81006721      20.00000000        3       1.00000000       0.00000000       0.00000000       0.00000000       0.00000000       0.00000000       0.00000000
H        4.20923268       0.81006721      20.00000000        3       1.00000000       0.00000000       0.00000000       0.00000000       0.00000000       0.00000000       0.00000000
H        0.00000000       3.24026883      20.00000000        3       1.00000000       0.00000000       0.00000000       0.00000000       0.00000000       0.00000000       0.00000000
H        2.80615512       3.24026883      20.00000000        3       1.00000000       0.00000000       0.00000000       0.00000000       0.00000000       0.00000000       0.00000000
H        0.00000000       1.62013441      22.29121606        2       1.00000000       0.00000000       0.00000000       0.00000000       0.00000000       0.00000000       0.00000000
H        2.80615512       1.62013441      22.29121606        2       1.00000000       0.00000000       0.00000000       0.00000000       0.00000000       0.00000000       0.00000000
H        1.40307756       4.05033604      22.29121606        2       1.00000000       0.00000000       0.00000000       0.00000000       0.00000000       0.00000000       0.00000000
H        4.20923268       4.05033604      22.29121606        2       1.00000000       0.00000000       0.00000000       0.00000000       0.00000000       0.00000000       0.00000000
H        0.00000000       0.00000000      24.58243212        1       1.00000000       0.00000000       0.00000000       0.00000000       0.00000000       0.00000000       0.00000000
H        2.80615512       0.00000000      24.58243212        1       1.00000000       0.00000000       0.00000000       0.00000000       0.00000000       0.00000000       0.00000000
H        1.40307756       2.43020162      24.58243212        1       1.00000000       0.00000000       0.00000000       0.00000000       0.00000000       0.00000000       0.00000000
H        4.20923268       2.43020162      24.58243212        1       1.00000000       0.00000000       0.00000000       0.00000000       0.00000000       0.00000000       0.00000000
H        0.00700699       1.61703288      26.79754625        0       1.00000000      -0.00095691       0.00082019       0.00116274       0.00114081      -0.00033449      -0.00025585
H        2.79899131       1.61584591      26.79578144        0       1.00000000       0.00100759       0.00121129      -0.00008727      -0.00143313       0.00035470      -0.00252619
H        4.20660280       2.43403520      29.01571133        0       1.00000000      -0.00058809       0.00055068      -0.00065694       0.00087790       0.00094096      -0.00190731
H        4.20893928       4.06742797      26.80041068        0       1.00000000       0.00053015      -0.00040080       0.00008545      -0.00071348      -0.00266868       0.00054819
H        1.40306990       4.04222764      26.83380729        0       1.00000000      -0.00037084       0.00042066       0.00138180       0.00123384       0.00206282      -0.00274162
17
Lattice="5.612310241546866 0.0 0.0 0.0 4.860403243099165 0.0 0.0 0.0 44.58243212332868" Properties=species:S:1:pos:R:3:tags:I:1:masses:R:1:momenta:R:3:forces:R:3 KEmax=21.974192359903892 iter=50119 volume=1216.1236359717223 set_wall=T ns_energy=-10.966653124535165 last_walked_iter_clone=49922 energy=-10.966659369377274 stress="0.021123759834277396 6.554481759612441e-07 -1.8060591540337218e-05 6.554481759612441e-07 0.02119987195006596 -1.195147205876683e-05 -1.8060591540337218e-05 -1.195147205876683e-05 0.011517960201116952" pbc="T T F"
H        1.40307756       0.81006721      20.00000000        3       1.00000000       0.00000000       0.00000000       0.00000000       0.00000000       0.00000000       0.00000000
H        4.20923268       0.81006721      20.00000000        3       1.00000000       0.00000000       0.00000000       0.00000000       0.00000000       0.00000000       0.00000000
H        0.00000000       3.24026883      20.00000000        3       1.00000000       0.00000000       0.00000000       0.00000000       0.00000000       0.00000000       0.00000000
H        2.80615512       3.24026883      20.00000000        3       1.00000000       0.00000000       0.00000000       0.00000000       0.00000000       0.00000000       0.00000000
H        0.00000000       1.62013441      22.29121606        2       1.00000000       0.00000000       0.00000000       0.00000000       0.00000000       0.00000000       0.00000000
H        2.80615512       1.62013441      22.29121606        2       1.00000000       0.00000000       0.00000000       0.00000000       0.00000000       0.00000000       0.00000000
H        1.40307756       4.05033604      22.29121606        2       1.00000000       0.00000000       0.00000000       0.00000000       0.00000000       0.00000000       0.00000000
H        4.20923268       4.05033604      22.29121606        2       1.00000000       0.00000000       0.00000000       0.00000000       0.00000000       0.00000000       0.00000000
H        0.00000000       0.00000000      24.58243212        1       1.00000000       0.00000000       0.00000000       0.00000000       0.00000000       0.00000000       0.00000000
H        2.80615512       0.00000000      24.58243212        1       1.00000000       0.00000000       0.00000000       0.00000000       0.00000000       0.00000000       0.00000000
H        1.40307756       2.43020162      24.58243212        1       1.00000000       0.00000000       0.00000000       0.00000000       0.00000000       0.00000000       0.00000000
H        4.20923268       2.43020162      24.58243212        1       1.00000000       0.00000000       0.00000000       0.00000000       0.00000000       0.00000000       0.00000000
H        0.00829630       1.61496416      26.79577619        0       1.00000000      -0.00035347       0.00017472      -0.00010061       0.00114081      -0.00033449      -0.00025585
H        2.79895051       1.61511131      26.79667176        0       1.00000000       0.00099998       0.00317922      -0.00058757      -0.00143313       0.00035470      -0.00252619
H        4.20969012       2.43125960      29.01521887        0       1.00000000      -0.00057925      -0.00036449      -0.00072138       0.00087790       0.00094096      -0.00190731
H        4.20947215       4.06613663      26.80168652        0       1.00000000      -0.00059240      -0.00099126      -0.00054407      -0.00071348      -0.00266868       0.00054819
H        1.40313821       4.03951290      26.83217627        0       1.00000000       0.00033074      -0.00088014      -0.00047865       0.00123384       0.00206282      -0.00274162
17
Lattice="5.612310241546866 0.0 0.0 0.0 4.860403243099165 0.0 0.0 0.0 44.58243212332868" Properties=species:S:1:pos:R:3:tags:I:1:masses:R:1:momenta:R:3:forces:R:3 KEmax=21.974192359903892 iter=50119 volume=1216.1236359717223 set_wall=T ns_energy=-10.966653206655355 last_walked_iter_clone=50031 energy=-10.966659369377274 stress="0.021123759834277396 6.554481759612441e-07 -1.8060591540337218e-05 6.554481759612441e-07 0.02119987195006596 -1.195147205876683e-05 -1.8060591540337218e-05 -1.195147205876683e-05 0.011517960201116952" pbc="T T F"
H        1.40307756       0.81006721      20.00000000        3       1.00000000       0.00000000       0.00000000       0.00000000       0.00000000       0.00000000       0.00000000
H        4.20923268       0.81006721      20.00000000        3       1.00000000       0.00000000       0.00000000       0.00000000       0.00000000       0.00000000       0.00000000
H        0.00000000       3.24026883      20.00000000        3       1.00000000       0.00000000       0.00000000       0.00000000       0.00000000       0.00000000       0.00000000
H        2.80615512       3.24026883      20.00000000        3       1.00000000       0.00000000       0.00000000       0.00000000       0.00000000       0.00000000       0.00000000
H        0.00000000       1.62013441      22.29121606        2       1.00000000       0.00000000       0.00000000       0.00000000       0.00000000       0.00000000       0.00000000
H        2.80615512       1.62013441      22.29121606        2       1.00000000       0.00000000       0.00000000       0.00000000       0.00000000       0.00000000       0.00000000
H        1.40307756       4.05033604      22.29121606        2       1.00000000       0.00000000       0.00000000       0.00000000       0.00000000       0.00000000       0.00000000
H        4.20923268       4.05033604      22.29121606        2       1.00000000       0.00000000       0.00000000       0.00000000       0.00000000       0.00000000       0.00000000
H        0.00000000       0.00000000      24.58243212        1       1.00000000       0.00000000       0.00000000       0.00000000       0.00000000       0.00000000       0.00000000
H        2.80615512       0.00000000      24.58243212        1       1.00000000       0.00000000       0.00000000       0.00000000       0.00000000       0.00000000       0.00000000
H        1.40307756       2.43020162      24.58243212        1       1.00000000       0.00000000       0.00000000       0.00000000       0.00000000       0.00000000       0.00000000
H        4.20923268       2.43020162      24.58243212        1       1.00000000       0.00000000       0.00000000       0.00000000       0.00000000       0.00000000       0.00000000
H        0.00724922       1.61566810      26.79613047        0       1.00000000      -0.00024124      -0.00178833      -0.00001375       0.00114081      -0.00033449      -0.00025585
H        2.79894099       1.61523254      26.79554248        0       1.00000000       0.00099104       0.00001261       0.00051557      -0.00143313       0.00035470      -0.00252619
H        4.20793060       2.43098333      29.01453490        0       1.00000000      -0.00131360       0.00067773       0.00033444       0.00087790       0.00094096      -0.00190731
H        4.20983790       4.06663462      26.80063640        0       1.00000000      -0.00149862      -0.00098199      -0.00132117      -0.00071348      -0.00266868       0.00054819
H        1.40346464       4.04019244      26.83036893        0       1.00000000       0.00105365       0.00005319       0.00048776       0.00123384       0.00206282      -0.00274162
17
Lattice="5.612310241546866 0.0 0.0 0.0 4.860403243099165 0.0 0.0 0.0 44.58243212332868" Properties=species:S:1:pos:R:3:tags:I:1:masses:R:1:momenta:R:3:forces:R:3 KEmax=21.974192359903892 iter=50119 volume=1216.1236359717223 set_wall=T ns_energy=-10.966653095657998 last_walked_iter_clone=50090 energy=-10.966659369377274 stress="0.021123759834277396 6.554481759612441e-07 -1.8060591540337218e-05 6.554481759612441e-07 0.02119987195006596 -1.195147205876683e-05 -1.8060591540337218e-05 -1.195147205876683e-05 0.011517960201116952" pbc="T T F"
H        1.40307756       0.81006721      20.00000000        3       1.00000000       0.00000000       0.00000000       0.00000000       0.00000000       0.00000000       0.00000000
H        4.20923268       0.81006721      20.00000000        3       1.00000000       0.00000000       0.00000000       0.00000000       0.00000000       0.00000000       0.00000000
H        0.00000000       3.24026883      20.00000000        3       1.00000000       0.00000000       0.00000000       0.00000000       0.00000000       0.00000000       0.00000000
H        2.80615512       3.24026883      20.00000000        3       1.00000000       0.00000000       0.00000000       0.00000000       0.00000000       0.00000000       0.00000000
H        0.00000000       1.62013441      22.29121606        2       1.00000000       0.00000000       0.00000000       0.00000000       0.00000000       0.00000000       0.00000000
H        2.80615512       1.62013441      22.29121606        2       1.00000000       0.00000000       0.00000000       0.00000000       0.00000000       0.00000000       0.00000000
H        1.40307756       4.05033604      22.29121606        2       1.00000000       0.00000000       0.00000000       0.00000000       0.00000000       0.00000000       0.00000000
H        4.20923268       4.05033604      22.29121606        2       1.00000000       0.00000000       0.00000000       0.00000000       0.00000000       0.00000000       0.00000000
H        0.00000000       0.00000000      24.58243212        1       1.00000000       0.00000000       0.00000000       0.00000000       0.00000000       0.00000000       0.00000000
H        2.80615512       0.00000000      24.58243212        1       1.00000000       0.00000000       0.00000000       0.00000000       0.00000000       0.00000000       0.00000000
H        1.40307756       2.43020162      24.58243212        1       1.00000000       0.00000000       0.00000000       0.00000000       0.00000000       0.00000000       0.00000000
H        4.20923268       2.43020162      24.58243212        1       1.00000000       0.00000000       0.00000000       0.00000000       0.00000000       0.00000000       0.00000000
H        0.00666446       1.61598679      26.79720494        0       1.00000000       0.00089463       0.00085789      -0.00078909       0.00114081      -0.00033449      -0.00025585
H        2.79882249       1.61582701      26.79581444        0       1.00000000      -0.00220344       0.00068145       0.00016049      -0.00143313       0.00035470      -0.00252619
H        4.20492541       2.43237635      29.01548195        0       1.00000000      -0.00044121      -0.00062577      -0.00015210       0.00087790       0.00094096      -0.00190731
H        4.20868671       4.06616184      26.80027960        0       1.00000000      -0.00018099       0.00106576       0.00161483      -0.00071348      -0.00266868       0.00054819
H        1.40221622       4.04161384      26.83153455        0       1.00000000      -0.00039937      -0.00038822      -0.00039560       0.00123384       0.00206282      -0.00274162
17
Lattice="5.612310241546866 0.0 0.0 0.0 4.860403243099165 0.0 0.0 0.0 44.58243212332868" Properties=species:S:1:pos:R:3:tags:I:1:masses:R:1:momenta:R:3:forces:R:3 KEmax=21.974192359903892 iter=50119 volume=1216.1236359717223 set_wall=T ns_energy=-10.96665296571694 last_walked_iter_clone=49848 energy=-10.966659369377274 stress="0.021123759834277396 6.554481759612441e-07 -1.8060591540337218e-05 6.554481759612441e-07 0.02119987195006596 -1.195147205876683e-05 -1.8060591540337218e-05 -1.195147205876683e-05 0.011517960201116952" pbc="T T F"
H        1.40307756       0.81006721      20.00000000        3       1.00000000       0.00000000       0.00000000       0.00000000       0.00000000       0.00000000       0.00000000
H        4.20923268       0.81006721      20.00000000        3       1.00000000       0.00000000       0.00000000       0.00000000       0.00000000       0.00000000       0.00000000
H        0.00000000       3.24026883      20.00000000        3       1.00000000       0.00000000       0.00000000       0.00000000       0.00000000       0.00000000       0.00000000
H        2.80615512       3.24026883      20.00000000        3       1.00000000       0.00000000       0.00000000       0.00000000       0.00000000       0.00000000       0.00000000
H        0.00000000       1.62013441      22.29121606        2       1.00000000       0.00000000       0.00000000       0.00000000       0.00000000       0.00000000       0.00000000
H        2.80615512       1.62013441      22.29121606        2       1.00000000       0.00000000       0.00000000       0.00000000       0.00000000       0.00000000       0.00000000
H        1.40307756       4.05033604      22.29121606        2       1.00000000       0.00000000       0.00000000       0.00000000       0.00000000       0.00000000       0.00000000
H        4.20923268       4.05033604      22.29121606        2       1.00000000       0.00000000       0.00000000       0.00000000       0.00000000       0.00000000       0.00000000
H        0.00000000       0.00000000      24.58243212        1       1.00000000       0.00000000       0.00000000       0.00000000       0.00000000       0.00000000       0.00000000
H        2.80615512       0.00000000      24.58243212        1       1.00000000       0.00000000       0.00000000       0.00000000       0.00000000       0.00000000       0.00000000
H        1.40307756       2.43020162      24.58243212        1       1.00000000       0.00000000       0.00000000       0.00000000       0.00000000       0.00000000       0.00000000
H        4.20923268       2.43020162      24.58243212        1       1.00000000       0.00000000       0.00000000       0.00000000       0.00000000       0.00000000       0.00000000
H        0.00744996       1.61503060      26.79652428        0       1.00000000      -0.00158197       0.00061847       0.00105937       0.00114081      -0.00033449      -0.00025585
H        2.79860377       1.61480723      26.79694102        0       1.00000000       0.00024202      -0.00056801       0.00067085      -0.00143313       0.00035470      -0.00252619
H        4.21087175       2.43024316      29.01610903        0       1.00000000      -0.00138620      -0.00153345      -0.00084469       0.00087790       0.00094096      -0.00190731
H        4.20907443       4.06682181      26.80146739        0       1.00000000      -0.00019155      -0.00057196       0.00110647      -0.00071348      -0.00266868       0.00054819
H        1.40320473       4.04009376      26.83110562        0       1.00000000      -0.00107329       0.00104106      -0.00016849       0.00123384       0.00206282      -0.00274162
17
Lattice="5.612310241546866 0.0 0.0 0.0 4.860403243099165 0.0 0.0 0.0 44.58243212332868" Properties=species:S:1:pos:R:3:tags:I:1:masses:R:1:momenta:R:3:forces:R:3 KEmax=21.974192359903892 iter=50119 volume=1216.1236359717223 set_wall=T ns_energy=-10.966653260439882 last_walked_iter_clone=50077 energy=-10.966659369377274 stress="0.021123759834277396 6.554481759612441e-07 -1.8060591540337218e-05 6.554481759612441e-07 0.02119987195006596 -1.195147205876683e-05 -1.8060591540337218e-05 -1.195147205876683e-05 0.011517960201116952" pbc="T T F"
H        1.40307756       0.81006721      20.00000000        3       1.00000000       0.00000000       0.00000000       0.00000000       0.00000000       0.00000000       0.00000000