20
Lattice="5.612310241546866 0.0 0.0 0.0 4.860403243099165 0.0 0.0 0.0 24.582432123328676" Properties=species:S:1:pos:R:3:tags:I:1:masses:R:1:momenta:R:3:forces:R:3 KEmax=25.851991011651638 iter=145262 volume=670.5618179858607 ns_energy=-13.620080564961798 last_walked_iter_clone=145211 energy=-13.620080582331356 stress="0.02572594384648041 7.490954843758929e-07 5.039946153030851e-07 7.490954843758929e-07 0.02572502351414869 1.1404664573410245e-06 5.039946153030851e-07 1.1404664573410245e-06 0.013286348830577931" pbc="T T F"
H        1.40307756       0.81006721      10.00000000        3       1.00000000       0.00000000       0.00000000       0.00000000       0.00000000       0.00000000       0.00000000
H        4.20923268       0.81006721      10.00000000        3       1.00000000       0.00000000       0.00000000       0.00000000       0.00000000       0.00000000       0.00000000
H        0.00000000       3.24026883      10.00000000        3       1.00000000       0.00000000       0.00000000       0.00000000       0.00000000       0.00000000       0.00000000
H        2.80615512       3.24026883      10.00000000        3       1.00000000       0.00000000       0.00000000       0.00000000       0.00000000       0.00000000       0.00000000
H        0.00000000       1.62013441      12.29121606        2       1.00000000       0.00000000       0.00000000       0.00000000       0.00000000       0.00000000       0.00000000
H        2.80615512       1.62013441      12.29121606        2       1.00000000       0.00000000       0.00000000       0.00000000       0.00000000       0.00000000       0.00000000
H        1.40307756       4.05033604      12.29121606        2       1.00000000       0.00000000       0.00000000       0.00000000       0.00000000       0.00000000       0.00000000
H        4.20923268       4.05033604      12.29121606        2       1.00000000       0.00000000       0.00000000       0.00000000       0.00000000       0.00000000       0.00000000
H        0.00000000       0.00000000      14.58243212        1       1.00000000       0.00000000       0.00000000       0.00000000       0.00000000       0.00000000       0.00000000
H        2.80615512       0.00000000      14.58243212        1       1.00000000       0.00000000       0.00000000       0.00000000       0.00000000       0.00000000       0.00000000
H        1.40307756       2.43020162      14.58243212        1       1.00000000       0.00000000       0.00000000       0.00000000       0.00000000       0.00000000       0.00000000
H        4.20923268       2.43020162      14.58243212        1       1.00000000       0.00000000       0.00000000       0.00000000       0.00000000       0.00000000       0.00000000
H        1.40306894       4.05028479      16.81104320        0       1.00000000       0.00001402      -0.00004359      -0.00007296      -0.00003858      -0.00015239       0.00008824
H        0.00008912      -0.00000227       7.77171271        0       1.00000000      -0.00005049      -0.00001361       0.00003433       0.00012171      -0.00002500      -0.00006034
H        2.80616266       1.62009118      16.81110874        0       1.00000000      -0.00002120      -0.00000540       0.00004319       0.00007933       0.00010330      -0.00006717
H        4.20931377       2.43020819       7.77170905        0       1.00000000       0.00000142      -0.00007878      -0.00003284      -0.00008989       0.00018597       0.00003001
H        4.20923363       4.05027489      16.81107184        0       1.00000000       0.00003059      -0.00002848      -0.00000427       0.00003924      -0.00004567      -0.00011027
H        2.80624164      -0.00000529       7.77170519        0       1.00000000      -0.00007553       0.00001126       0.00003025      -0.00001005       0.00003655      -0.00008581
H       -0.00000509       1.62014651      16.81108011        0       1.00000000       0.00000097      -0.00002920      -0.00002851      -0.00002464       0.00008291      -0.00007623
H        1.40310706       2.43018263       7.77174845        0       1.00000000      -0.00005802      -0.00008456      -0.00006272       0.00008928      -0.00008341      -0.00010845
20
Lattice="5.612310241546866 0.0 0.0 0.0 4.860403243099165 0.0 0.0 0.0 24.582432123328676" Properties=species:S:1:pos:R:3:tags:I:1:masses:R:1:momenta:R:3:forces:R:3 KEmax=25.851991011651638 iter=145262 volume=670.5618179858607 ns_energy=-13.620080564707557 last_walked_iter_clone=145124 energy=-13.620080582331356 stress="0.02572594384648041 7.490954843758929e-07 5.039946153030851e-07 7.490954843758929e-07 0.02572502351414869 1.1404664573410245e-06 5.039946153030851e-07 1.1404664573410245e-06 0.013286348830577931" pbc="T T F"
H        1.40307756       0.81006721      10.00000000        3       1.00000000       0.00000000       0.00000000       0.00000000       0.00000000       0.00000000       0.00000000
H        4.20923268       0.81006721      10.00000000        3       1.00000000       0.00000000       0.00000000       0.00000000       0.00000000       0.00000000       0.00000000
H        0.00000000       3.24026883      10.00000000        3       1.00000000       0.00000000       0.00000000       0.00000000       0.00000000       0.00000000       0.00000000
H        2.80615512       3.24026883      10.00000000        3       1.00000000       0.00000000       0.00000000       0.00000000       0.00000000       0.00000000       0.00000000
H        0.00000000       1.62013441      12.29121606        2       1.00000000       0.00000000       0.00000000       0.00000000       0.00000000       0.00000000       0.00000000
H        2.80615512       1.62013441      12.29121606        2       1.00000000       0.00000000       0.00000000       0.00000000       0.00000000       0.00000000       0.00000000
H        1.40307756       4.05033604      12.29121606        2       1.00000000       0.00000000       0.00000000       0.00000000       0.00000000       0.00000000       0.00000000
H        4.20923268       4.05033604      12.29121606        2       1.00000000       0.00000000       0.00000000       0.00000000       0.00000000       0.00000000       0.00000000
H        0.00000000       0.00000000      14.58243212        1       1.00000000       0.00000000       0.00000000       0.00000000       0.00000000       0.00000000       0.00000000
H        2.80615512       0.00000000      14.58243212        1       1.00000000       0.00000000       0.00000000       0.00000000       0.00000000       0.00000000       0.00000000
H        1.40307756       2.43020162      14.58243212        1       1.00000000       0.00000000       0.00000000       0.00000000       0.00000000       0.00000000       0.00000000
H        4.20923268       2.43020162      14.58243212        1       1.00000000       0.00000000       0.00000000       0.00000000       0.00000000       0.00000000       0.00000000
H        1.40304550       4.05038541      16.81110587        0       1.00000000       0.00002052      -0.00001708       0.00004636      -0.00003858      -0.00015239       0.00008824
H        5.61225415      -0.00005543       7.77173095        0       1.00000000       0.00000247      -0.00001721       0.00008031       0.00012171      -0.00002500      -0.00006034
H        2.80614580       1.62019186      16.81102818        0       1.00000000       0.00001851      -0.00003299      -0.00006808       0.00007933       0.00010330      -0.00006717
H        4.20919059       2.43016539       7.77170204        0       1.00000000       0.00004732      -0.00000244       0.00002662      -0.00008989       0.00018597       0.00003001
H        4.20924602       4.05040194      16.81103371        0       1.00000000      -0.00004642      -0.00001905      -0.00005087       0.00003924      -0.00004567      -0.00011027
H        2.80609934      -0.00004948       7.77175250        0       1.00000000       0.00005433      -0.00006092       0.00003388      -0.00001005       0.00003655      -0.00008581
H       -0.00004385       1.62015128      16.81109670        0       1.00000000      -0.00006120       0.00001147      -0.00001670      -0.00002464       0.00008291      -0.00007623
H        1.40309381       2.43015938       7.77174578        0       1.00000000      -0.00000675      -0.00003111       0.00004249       0.00008928      -0.00008341      -0.00010845
20
Lattice="5.612310241546866 0.0 0.0 0.0 4.860403243099165 0.0 0.0 0.0 24.582432123328676" Properties=species:S:1:pos:R:3:tags:I:1:masses:R:1:momenta:R:3:forces:R:3 KEmax=25.851991011651638 iter=145262 volume=670.5618179858607 ns_energy=-13.620080565373353 last_walked_iter_clone=145111 energy=-13.620080582331356 stress="0.02572594384648041 7.490954843758929e-07 5.039946153030851e-07 7.490954843758929e-07 0.02572502351414869 1.1404664573410245e-06 5.039946153030851e-07 1.1404664573410245e-06 0.013286348830577931" pbc="T T F"
H        1.40307756       0.81006721      10.00000000        3       1.00000000       0.00000000       0.00000000       0.00000000       0.00000000       0.00000000       0.00000000
H        4.20923268       0.81006721      10.00000000        3       1.00000000       0.00000000       0.00000000       0.00000000       0.00000000       0.00000000       0.00000000
H        0.00000000       3.24026883      10.00000000        3       1.00000000       0.00000000       0.00000000       0.00000000       0.00000000       0.00000000       0.00000000
H        2.80615512       3.24026883      10.00000000        3       1.00000000       0.00000000       0.00000000       0.00000000       0.00000000       0.00000000       0.00000000
H        0.00000000       1.62013441      12.29121606        2       1.00000000       0.00000000       0.00000000       0.00000000       0.00000000       0.00000000       0.00000000
H        2.80615512       1.62013441      12.29121606        2       1.00000000       0.00000000       0.00000000       0.00000000       0.00000000       0.00000000       0.00000000
H        1.40307756       4.05033604      12.29121606        2       1.00000000       0.00000000       0.00000000       0.00000000       0.00000000       0.00000000       0.00000000
H        4.20923268       4.05033604      12.29121606        2       1.00000000       0.00000000       0.00000000       0.00000000       0.00000000       0.00000000       0.00000000
H        0.00000000       0.00000000      14.58243212        1       1.00000000       0.00000000       0.00000000       0.00000000       0.00000000       0.00000000       0.00000000
H        2.80615512       0.00000000      14.58243212        1       1.00000000       0.00000000       0.00000000       0.00000000       0.00000000       0.00000000       0.00000000
H        1.40307756       2.43020162      14.58243212        1       1.00000000       0.00000000       0.00000000       0.00000000       0.00000000       0.00000000       0.00000000
H        4.20923268       2.43020162      14.58243212        1       1.00000000       0.00000000       0.00000000       0.00000000       0.00000000       0.00000000       0.00000000
H        1.40300556       4.05030702      16.81107439        0       1.00000000      -0.00000587       0.00001539      -0.00004245      -0.00003858      -0.00015239       0.00008824
H       -0.00004013       4.86047450       7.77172081        0       1.00000000       0.00004679       0.00001081       0.00007284       0.00012171      -0.00002500      -0.00006034
H        2.80609344       1.62009633      16.81100580        0       1.00000000      -0.00001919      -0.00001381       0.00001228       0.00007933       0.00010330      -0.00006717
H        4.20923576       2.43024776       7.77172608        0       1.00000000      -0.00000088       0.00003625       0.00001242      -0.00008989       0.00018597       0.00003001
H        4.20916366       4.05033947      16.81102464        0       1.00000000       0.00001579      -0.00006360      -0.00005985       0.00003924      -0.00004567      -0.00011027
H        2.80613911       4.86040268       7.77175214        0       1.00000000      -0.00004873       0.00002606      -0.00007463      -0.00001005       0.00003655      -0.00008581
H        5.61228065       1.62009733      16.81107457        0       1.00000000       0.00006877       0.00005667       0.00002212      -0.00002464       0.00008291      -0.00007623
H        1.40306113       2.43021998       7.77176069        0       1.00000000       0.00005812       0.00005317       0.00000323       0.00008928      -0.00008341      -0.00010845
20
Lattice="5.612310241546866 0.0 0.0 0.0 4.860403243099165 0.0 0.0 0.0 24.582432123328676" Properties=species:S:1:pos:R:3:tags:I:1:masses:R:1:momenta:R:3:forces:R:3 KEmax=25.851991011651638 iter=145262 volume=670.5618179858607 ns_energy=-13.620080566002121 last_walked_iter_clone=145207 energy=-13.620080582331356 stress="0.02572594384648041 7.490954843758929e-07 5.039946153030851e-07 7.490954843758929e-07 0.02572502351414869 1.1404664573410245e-06 5.039946153030851e-07 1.1404664573410245e-06 0.013286348830577931" pbc="T T F"
H        1.40307756       0.81006721      10.00000000        3       1.00000000       0.00000000       0.00000000       0.00000000       0.00000000       0.00000000       0.00000000
H        4.20923268       0.81006721      10.00000000        3       1.00000000       0.00000000       0.00000000       0.00000000       0.00000000       0.00000000       0.00000000
H        0.00000000       3.24026883      10.00000000        3       1.00000000       0.00000000       0.00000000       0.00000000       0.00000000       0.00000000       0.00000000
H        2.80615512       3.24026883      10.00000000        3       1.00000000       0.00000000       0.00000000       0.00000000       0.00000000       0.00000000       0.00000000
H        0.00000000       1.62013441      12.29121606        2       1.00000000       0.00000000       0.00000000       0.00000000       0.00000000       0.00000000       0.00000000
H        2.80615512       1.62013441      12.29121606        2       1.00000000       0.00000000       0.00000000       0.00000000       0.00000000       0.00000000       0.00000000
H        1.40307756       4.05033604      12.29121606        2       1.00000000       0.00000000       0.00000000       0.00000000       0.00000000       0.00000000       0.00000000
H        4.20923268       4.05033604      12.29121606        2       1.00000000       0.00000000       0.00000000       0.00000000       0.00000000       0.00000000       0.00000000
H        0.00000000       0.00000000      14.58243212        1       1.00000000       0.00000000       0.00000000       0.00000000       0.00000000       0.00000000       0.00000000
H        2.80615512       0.00000000      14.58243212        1       1.00000000       0.00000000       0.00000000       0.00000000       0.00000000       0.00000000       0.00000000
H        1.40307756       2.43020162      14.58243212        1       1.00000000       0.00000000       0.00000000       0.00000000       0.00000000       0.00000000       0.00000000
H        4.20923268       2.43020162      14.58243212        1       1.00000000       0.00000000       0.00000000       0.00000000       0.00000000       0.00000000       0.00000000
H        1.40314356       4.05035735      16.81106368        0       1.00000000       0.00002746      -0.00003551       0.00000180      -0.00003858      -0.00015239       0.00008824
H        0.00002006       0.00001448       7.77171317        0       1.00000000      -0.00004191      -0.00003680      -0.00007265       0.00012171      -0.00002500      -0.00006034
H        2.80617732       1.62018462      16.81101125        0       1.00000000      -0.00007879       0.00001923       0.00002599       0.00007933       0.00010330      -0.00006717
H        4.20923244       2.43026636       7.77171336        0       1.00000000      -0.00001157      -0.00009800       0.00005647      -0.00008989       0.00018597       0.00003001
H        4.20928793       4.05037053      16.81107433        0       1.00000000       0.00003128       0.00006385      -0.00005463       0.00003924      -0.00004567      -0.00011027
H        2.80612199       0.00005004       7.77175103        0       1.00000000      -0.00005545      -0.00004237      -0.00001416      -0.00001005       0.00003655      -0.00008581
H        0.00000789       1.62015695      16.81103624        0       1.00000000      -0.00002276      -0.00001327       0.00002582      -0.00002464       0.00008291      -0.00007623
H        1.40304185       2.43020504       7.77172584        0       1.00000000       0.00001403      -0.00001740       0.00004729       0.00008928      -0.00008341      -0.00010845
20
Lattice="5.612310241546866 0.0 0.0 0.0 4.860403243099165 0.0 0.0 0.0 24.582432123328676" Properties=species:S:1:pos:R:3:tags:I:1:masses:R:1:momenta:R:3:forces:R:3 KEmax=25.851991011651638 iter=145262 volume=670.5618179858607 ns_energy=-13.620080564862732 last_walked_iter_clone=144820 energy=-13.620080582331356 stress="0.02572594384648041 7.490954843758929e-07 5.039946153030851e-07 7.490954843758929e-07 0.02572502351414869 1.1404664573410245e-06 5.039946153030851e-07 1.1404664573410245e-06 0.013286348830577931" pbc="T T F"
H        1.40307756       0.81006721      10.00000000        3       1.00000000       0.00000000       0.00000000       0.00000000       0.00000000       0.00000000       0.00000000
H        4.20923268       0.81006721      10.00000000        3       1.00000000       0.00000000       0.00000000       0.00000000       0.00000000       0.00000000       0.00000000
H        0.00000000       3.24026883      10.00000000        3       1.00000000       0.00000000       0.00000000       0.00000000       0.00000000       0.00000000       0.00000000
H        2.80615512       3.24026883      10.00000000        3       1.00000000       0.00000000       0.00000000       0.00000000       0.00000000       0.00000000       0.00000000
H        0.00000000       1.62013441      12.29121606        2       1.00000000       0.00000000       0.00000000       0.00000000       0.00000000       0.00000000       0.00000000
H        2.80615512       1.62013441      12.29121606        2       1.00000000       0.00000000       0.00000000       0.00000000       0.00000000       0.00000000       0.00000000
H        1.40307756       4.05033604      12.29121606        2       1.00000000       0.00000000       0.00000000       0.00000000       0.00000000       0.00000000       0.00000000
H        4.20923268       4.05033604      12.29121606        2       1.00000000       0.00000000       0.00000000       0.00000000       0.00000000       0.00000000       0.00000000
H        0.00000000       0.00000000      14.58243212        1       1.00000000       0.00000000       0.00000000       0.00000000       0.00000000       0.00000000       0.00000000
H        2.80615512       0.00000000      14.58243212        1       1.00000000       0.00000000       0.00000000       0.00000000       0.00000000       0.00000000       0.00000000
H        1.40307756       2.43020162      14.58243212        1       1.00000000       0.00000000       0.00000000       0.00000000       0.00000000       0.00000000       0.00000000
H        4.20923268       2.43020162      14.58243212        1       1.00000000       0.00000000       0.00000000       0.00000000       0.00000000       0.00000000       0.00000000
H        1.40302641       4.05027974      16.81103930        0       1.00000000      -0.00003112       0.00002127      -0.00004257      -0.00003858      -0.00015239       0.00008824
H        5.61224804       4.86038462       7.77173039        0       1.00000000      -0.00000134      -0.00009383      -0.00006192       0.00012171      -0.00002500      -0.00006034
H        2.80611290       1.62011986      16.81104966        0       1.00000000      -0.00002101       0.00001362      -0.00000991       0.00007933       0.00010330      -0.00006717
H        4.20921001       2.43016092       7.77172609        0       1.00000000       0.00001782       0.00005972      -0.00001045      -0.00008989       0.00018597       0.00003001
H        4.20918568       4.05032566      16.81105113        0       1.00000000      -0.00002508       0.00000118       0.00008084       0.00003924      -0.00004567      -0.00011027
H        2.80613449       4.86041952       7.77172997        0       1.00000000       0.00004103       0.00010573      -0.00005027      -0.00001005       0.00003655      -0.00008581
H       -0.00004329       1.62012173      16.81109728        0       1.00000000      -0.00003204       0.00000740      -0.00000462      -0.00002464       0.00008291      -0.00007623
H        1.40301343       2.43016491       7.77175495        0       1.00000000       0.00001120       0.00004231      -0.00008485       0.00008928      -0.00008341      -0.00010845
20
Lattice="5.612310241546866 0.0 0.0 0.0 4.860403243099165 0.0 0.0 0.0 24.582432123328676" Properties=species:S:1:pos:R:3:tags:I:1:masses:R:1:momenta:R:3:forces:R:3 KEmax=25.851991011651638 iter=145262 volume=670.5618179858607 ns_energy=-13.62008056535918 last_walked_iter_clone=145234 energy=-13.620080582331356 stress="0.02572594384648041 7.490954843758929e-07 5.039946153030851e-07 7.490954843758929e-07 0.02572502351414869 1.1404664573410245e-06 5.039946153030851e-07 1.1404664573410245e-06 0.013286348830577931" pbc="T T F"
H        1.40307756       0.81006721      10.00000000        3       1.00000000       0.00000000       0.00000000       0.00000000       0.00000000       0.00000000       0.00000000
H        4.20923268       0.81006721      10.00000000        3       1.00000000       0.00000000       0.00000000       0.00000000       0.00000000       0.00000000       0.00000000
H        0.00000000       3.24026883      10.00000000        3       1.00000000       0.00000000       0.00000000       0.00000000       0.00000000       0.00000000       0.00000000
H        2.80615512       3.24026883      10.00000000        3       1.00000000       0.00000000       0.00000000       0.00000000       0.00000000       0.00000000       0.00000000
H        0.00000000       1.62013441      12.29121606        2       1.00000000       0.00000000       0.00000000       0.00000000       0.00000000       0.00000000       0.00000000
H        2.80615512       1.62013441      12.29121606        2       1.00000000       0.00000000       0.00000000       0.00000000       0.00000000       0.00000000       0.00000000
H        1.40307756       4.05033604      12.29121606        2       1.00000000       0.00000000       0.00000000       0.00000000       0.00000000       0.00000000       0.00000000
H        4.20923268       4.05033604      12.29121606        2       1.00000000       0.00000000       0.00000000       0.00000000       0.00000000       0.00000000       0.00000000
H        0.00000000       0.00000000      14.58243212        1       1.00000000       0.00000000       0.00000000       0.00000000       0.00000000       0.00000000       0.00000000
H        2.80615512       0.00000000      14.58243212        1       1.00000000       0.00000000       0.00000000       0.00000000       0.00000000       0.00000000       0.00000000
H        1.40307756       2.43020162      14.58243212        1       1.00000000       0.00000000       0.00000000       0.00000000       0.00000000       0.00000000       0.00000000
H        4.20923268       2.43020162      14.58243212        1       1.00000000       0.00000000       0.00000000       0.00000000       0.00000000       0.00000000       0.00000000
H        1.40307298       4.05031078      16.81107661        0       1.00000000       0.00003636      -0.00004935      -0.00002040      -0.00003858      -0.00015239       0.00008824
H       -0.00002468       0.00004894       7.77172777        0       1.00000000      -0.00001351       0.00002941       0.00003300       0.00012171      -0.00002500      -0.00006034
H        2.80616435       1.62008855      16.81105050        0       1.00000000      -0.00007227       0.00002886      -0.00001473       0.00007933       0.00010330      -0.00006717
H        4.20923775       2.43027235       7.77172920        0       1.00000000      -0.00001613      -0.00002659      -0.00007517      -0.00008989       0.00018597       0.00003001
H        4.20921452       4.05029204      16.81103616        0       1.00000000       0.00006650       0.00003918      -0.00003333       0.00003924      -0.00004567      -0.00011027
H        2.80614760       0.00008876       7.77168495        0       1.00000000      -0.00009723       0.00005095       0.00005409      -0.00001005       0.00003655      -0.00008581
H       -0.00005424       1.62013204      16.81104168        0       1.00000000       0.00004423       0.00002722      -0.00006297      -0.00002464       0.00008291      -0.00007623
H        1.40306018       2.43025969       7.77174980        0       1.00000000       0.00004593      -0.00003867      -0.00002934       0.00008928      -0.00008341      -0.00010845
20
Lattice="5.612310241546866 0.0 0.0 0.0 4.860403243099165 0.0 0.0 0.0 24.582432123328676" Properties=species:S:1:pos:R:3:tags:I:1:masses:R:1:momenta:R:3:forces:R:3 KEmax=25.851991011651638 iter=145262 volume=670.5618179858607 ns_energy=-13.62008056579798 last_walked_iter_clone=145214 energy=-13.620080582331356 stress="0.02572594384648041 7.490954843758929e-07 5.039946153030851e-07 7.490954843758929e-07 0.02572502351414869 1.1404664573410245e-06 5.039946153030851e-07 1.1404664573410245e-06 0.013286348830577931" pbc="T T F"
H        1.40307756       0.81006721      10.00000000        3       1.00000000       0.00000000       0.00000000       0.00000000       0.00000000       0.00000000       0.00000000
H        4.20923268       0.81006721      10.00000000        3       1.00000000       0.00000000       0.00000000       0.00000000       0.00000000       0.00000000       0.00000000
H        0.00000000       3.24026883      10.00000000        3       1.00000000       0.00000000       0.00000000       0.00000000       0.00000000       0.00000000       0.00000000
H        2.80615512       3.24026883      10.00000000        3       1.00000000       0.00000000       0.00000000       0.00000000       0.00000000       0.00000000       0.00000000
H        0.00000000       1.62013441      12.29121606        2       1.00000000       0.00000000       0.00000000       0.00000000       0.00000000       0.00000000       0.00000000
H        2.80615512       1.62013441      12.29121606        2       1.00000000       0.00000000       0.00000000       0.00000000       0.00000000       0.00000000       0.00000000
H        1.40307756       4.05033604      12.29121606        2       1.00000000       0.00000000       0.00000000       0.00000000       0.00000000       0.00000000       0.00000000
H        4.20923268       4.05033604      12.29121606        2       1.00000000       0.00000000       0.00000000       0.00000000       0.00000000       0.00000000       0.00000000
H        0.00000000       0.00000000      14.58243212        1       1.00000000       0.00000000       0.00000000       0.00000000       0.00000000       0.00000000       0.00000000
H        2.80615512       0.00000000      14.58243212        1       1.00000000       0.00000000       0.00000000       0.00000000       0.00000000       0.00000000       0.00000000
H        1.40307756       2.43020162      14.58243212        1       1.00000000       0.00000000       0.00000000       0.00000000       0.00000000       0.00000000       0.00000000
H        4.20923268       2.43020162      14.58243212        1       1.00000000       0.00000000       0.00000000       0.00000000       0.00000000       0.00000000       0.00000000
H        1.40305174       4.05034880      16.81103277        0       1.00000000       0.00004693       0.00001932      -0.00003849      -0.00003858      -0.00015239       0.00008824
H        0.00002154       0.00002742       7.77175007        0       1.00000000      -0.00008055       0.00004290      -0.00008003       0.00012171      -0.00002500      -0.00006034
H        2.80612821       1.62012204      16.81099268        0       1.00000000       0.00000006      -0.00005944       0.00004401       0.00007933       0.00010330      -0.00006717
H        4.20921278       2.43022531       7.77171476        0       1.00000000       0.00001455      -0.00006147      -0.00000233      -0.00008989       0.00018597       0.00003001
H        4.20921024       4.05033513      16.81101359        0       1.00000000      -0.00006017       0.00001776      -0.00002049       0.00003924      -0.00004567      -0.00011027
H        2.80616540       0.00001943       7.77173273        0       1.00000000      -0.00004376      -0.00006136      -0.00005525      -0.00001005       0.00003655      -0.00008581
H        5.61228723       1.62007466      16.81101479        0       1.00000000       0.00000844       0.00001271       0.00000544      -0.00002464       0.00008291      -0.00007623
H        1.40305257       2.43020628       7.77174270        0       1.00000000       0.00000401       0.00001720       0.00000466       0.00008928      -0.00008341      -0.00010845
20
Lattice="5.612310241546866 0.0 0.0 0.0 4.860403243099165 0.0 0.0 0.0 24.582432123328676" Properties=species:S:1:pos:R:3:tags:I:1:masses:R:1:momenta:R:3:forces:R:3 KEmax=25.851991011651638 iter=145262 volume=670.5618179858607 ns_energy=-13.620080565890026 last_walked_iter_clone=145180 energy=-13.620080582331356 stress="0.02572594384648041 7.490954843758929e-07 5.039946153030851e-07 7.490954843758929e-07 0.02572502351414869 1.1404664573410245e-06 5.039946153030851e-07 1.1404664573410245e-06 0.013286348830577931" pbc="T T F"
H        1.40307756       0.81006721      10.00000000        3       1.00000000       0.00000000       0.00000000       0.00000000       0.00000000       0.00000000       0.00000000