20
Lattice="5.612310241546866 0.0 0.0 0.0 4.860403243099165 0.0 0.0 0.0 24.582432123328676" Properties=species:S:1:pos:R:3:tags:I:1:masses:R:1:momenta:R:3:forces:R:3 KEmax=25.851991011651638 iter=239999 volume=670.5618179858607 ns_energy=-13.620080613391114 last_walked_iter_clone=239826 energy=-13.620080613396247 stress="0.025725804814942566 -4.4498221140878456e-10 -3.559971021675893e-09 -4.4498221140878456e-10 0.02572581810171217 2.3244443015917025e-08 -3.559971021675893e-09 2.3244443015917025e-08 0.013286988911645975" pbc="T T F"
H        1.40307756       0.81006721      10.00000000        3       1.00000000       0.00000000       0.00000000       0.00000000       0.00000000       0.00000000       0.00000000
H        4.20923268       0.81006721      10.00000000        3       1.00000000       0.00000000       0.00000000       0.00000000       0.00000000       0.00000000       0.00000000
H        0.00000000       3.24026883      10.00000000        3       1.00000000       0.00000000       0.00000000       0.00000000       0.00000000       0.00000000       0.00000000
H        2.80615512       3.24026883      10.00000000        3       1.00000000       0.00000000       0.00000000       0.00000000       0.00000000       0.00000000       0.00000000
H        0.00000000       1.62013441      12.29121606        2       1.00000000       0.00000000       0.00000000       0.00000000       0.00000000       0.00000000       0.00000000
H        2.80615512       1.62013441      12.29121606        2       1.00000000       0.00000000       0.00000000       0.00000000       0.00000000       0.00000000       0.00000000
H        1.40307756       4.05033604      12.29121606        2       1.00000000       0.00000000       0.00000000       0.00000000       0.00000000       0.00000000       0.00000000
H        4.20923268       4.05033604      12.29121606        2       1.00000000       0.00000000       0.00000000       0.00000000       0.00000000       0.00000000       0.00000000
H        0.00000000       0.00000000      14.58243212        1       1.00000000       0.00000000       0.00000000       0.00000000       0.00000000       0.00000000       0.00000000
H        2.80615512       0.00000000      14.58243212        1       1.00000000       0.00000000       0.00000000       0.00000000       0.00000000       0.00000000       0.00000000
H        1.40307756       2.43020162      14.58243212        1       1.00000000       0.00000000       0.00000000       0.00000000       0.00000000       0.00000000       0.00000000
H        4.20923268       2.43020162      14.58243212        1       1.00000000       0.00000000       0.00000000       0.00000000       0.00000000       0.00000000       0.00000000
H        1.40307680       4.05033591      16.81106492        0       1.00000000       0.00000041      -0.00000129      -0.00000065      -0.00000033       0.00000146      -0.00000038
H       -0.00000038       4.86040274       7.77172740        0       1.00000000       0.00000132      -0.00000130       0.00000056      -0.00000183       0.00000144      -0.00000032
H        2.80615432       1.62013423      16.81106549        0       1.00000000       0.00000032      -0.00000122      -0.00000095      -0.00000062      -0.00000207      -0.00000242
H        4.20923246       2.43020169       7.77172746        0       1.00000000       0.00000089       0.00000091       0.00000037       0.00000194       0.00000161       0.00000023
H        4.20923175       4.05033622      16.81106479        0       1.00000000       0.00000006      -0.00000097       0.00000051       0.00000037       0.00000039      -0.00000134
H        2.80615442      -0.00000048       7.77172659        0       1.00000000       0.00000020       0.00000044      -0.00000053      -0.00000078      -0.00000130      -0.00000030
H       -0.00000011       1.62013449      16.81106570        0       1.00000000      -0.00000026       0.00000009      -0.00000106       0.00000073      -0.00000180      -0.00000069
H        1.40307714       2.43020106       7.77172707        0       1.00000000      -0.00000026      -0.00000169      -0.00000063       0.00000043      -0.00000120      -0.00000271
20
Lattice="5.612310241546866 0.0 0.0 0.0 4.860403243099165 0.0 0.0 0.0 24.582432123328676" Properties=species:S:1:pos:R:3:tags:I:1:masses:R:1:momenta:R:3:forces:R:3 KEmax=25.851991011651638 iter=239999 volume=670.5618179858607 ns_energy=-13.620080613390876 last_walked_iter_clone=238105 energy=-13.620080613396247 stress="0.025725804814942566 -4.4498221140878456e-10 -3.559971021675893e-09 -4.4498221140878456e-10 0.02572581810171217 2.3244443015917025e-08 -3.559971021675893e-09 2.3244443015917025e-08 0.013286988911645975" pbc="T T F"
H        1.40307756       0.81006721      10.00000000        3       1.00000000       0.00000000       0.00000000       0.00000000       0.00000000       0.00000000       0.00000000
H        4.20923268       0.81006721      10.00000000        3       1.00000000       0.00000000       0.00000000       0.00000000       0.00000000       0.00000000       0.00000000
H        0.00000000       3.24026883      10.00000000        3       1.00000000       0.00000000       0.00000000       0.00000000       0.00000000       0.00000000       0.00000000
H        2.80615512       3.24026883      10.00000000        3       1.00000000       0.00000000       0.00000000       0.00000000       0.00000000       0.00000000       0.00000000
H        0.00000000       1.62013441      12.29121606        2       1.00000000       0.00000000       0.00000000       0.00000000       0.00000000       0.00000000       0.00000000
H        2.80615512       1.62013441      12.29121606        2       1.00000000       0.00000000       0.00000000       0.00000000       0.00000000       0.00000000       0.00000000
H        1.40307756       4.05033604      12.29121606        2       1.00000000       0.00000000       0.00000000       0.00000000       0.00000000       0.00000000       0.00000000
H        4.20923268       4.05033604      12.29121606        2       1.00000000       0.00000000       0.00000000       0.00000000       0.00000000       0.00000000       0.00000000
H        0.00000000       0.00000000      14.58243212        1       1.00000000       0.00000000       0.00000000       0.00000000       0.00000000       0.00000000       0.00000000
H        2.80615512       0.00000000      14.58243212        1       1.00000000       0.00000000       0.00000000       0.00000000       0.00000000       0.00000000       0.00000000
H        1.40307756       2.43020162      14.58243212        1       1.00000000       0.00000000       0.00000000       0.00000000       0.00000000       0.00000000       0.00000000
H        4.20923268       2.43020162      14.58243212        1       1.00000000       0.00000000       0.00000000       0.00000000       0.00000000       0.00000000       0.00000000
H        1.40307766       4.05033539      16.81106489        0       1.00000000      -0.00000068      -0.00000032      -0.00000033      -0.00000033       0.00000146      -0.00000038
H        5.61230899       4.86040295       7.77172695        0       1.00000000      -0.00000094       0.00000109       0.00000064      -0.00000183       0.00000144      -0.00000032
H        2.80615487       1.62013435      16.81106502        0       1.00000000       0.00000049      -0.00000166      -0.00000061      -0.00000062      -0.00000207      -0.00000242
H        4.20923237       2.43020172       7.77172669        0       1.00000000      -0.00000029       0.00000041       0.00000028       0.00000194       0.00000161       0.00000023
H        4.20923260       4.05033588      16.81106414        0       1.00000000      -0.00000009      -0.00000004       0.00000197       0.00000037       0.00000039      -0.00000134
H        2.80615421      -0.00000052       7.77172669        0       1.00000000      -0.00000027      -0.00000010      -0.00000005      -0.00000078      -0.00000130      -0.00000030
H        5.61230962       1.62013422      16.81106518        0       1.00000000      -0.00000115      -0.00000087      -0.00000150       0.00000073      -0.00000180      -0.00000069
H        1.40307751       2.43020110       7.77172754        0       1.00000000       0.00000074      -0.00000023       0.00000084       0.00000043      -0.00000120      -0.00000271
20
Lattice="5.612310241546866 0.0 0.0 0.0 4.860403243099165 0.0 0.0 0.0 24.582432123328676" Properties=species:S:1:pos:R:3:tags:I:1:masses:R:1:momenta:R:3:forces:R:3 KEmax=25.851991011651638 iter=239999 volume=670.5618179858607 ns_energy=-13.620080613390837 last_walked_iter_clone=238521 energy=-13.620080613396247 stress="0.025725804814942566 -4.4498221140878456e-10 -3.559971021675893e-09 -4.4498221140878456e-10 0.02572581810171217 2.3244443015917025e-08 -3.559971021675893e-09 2.3244443015917025e-08 0.013286988911645975" pbc="T T F"
H        1.40307756       0.81006721      10.00000000        3       1.00000000       0.00000000       0.00000000       0.00000000       0.00000000       0.00000000       0.00000000
H        4.20923268       0.81006721      10.00000000        3       1.00000000       0.00000000       0.00000000       0.00000000       0.00000000       0.00000000       0.00000000
H        0.00000000       3.24026883      10.00000000        3       1.00000000       0.00000000       0.00000000       0.00000000       0.00000000       0.00000000       0.00000000
H        2.80615512       3.24026883      10.00000000        3       1.00000000       0.00000000       0.00000000       0.00000000       0.00000000       0.00000000       0.00000000
H        0.00000000       1.62013441      12.29121606        2       1.00000000       0.00000000       0.00000000       0.00000000       0.00000000       0.00000000       0.00000000
H        2.80615512       1.62013441      12.29121606        2       1.00000000       0.00000000       0.00000000       0.00000000       0.00000000       0.00000000       0.00000000
H        1.40307756       4.05033604      12.29121606        2       1.00000000       0.00000000       0.00000000       0.00000000       0.00000000       0.00000000       0.00000000
H        4.20923268       4.05033604      12.29121606        2       1.00000000       0.00000000       0.00000000       0.00000000       0.00000000       0.00000000       0.00000000
H        0.00000000       0.00000000      14.58243212        1       1.00000000       0.00000000       0.00000000       0.00000000       0.00000000       0.00000000       0.00000000
H        2.80615512       0.00000000      14.58243212        1       1.00000000       0.00000000       0.00000000       0.00000000       0.00000000       0.00000000       0.00000000
H        1.40307756       2.43020162      14.58243212        1       1.00000000       0.00000000       0.00000000       0.00000000       0.00000000       0.00000000       0.00000000
H        4.20923268       2.43020162      14.58243212        1       1.00000000       0.00000000       0.00000000       0.00000000       0.00000000       0.00000000       0.00000000
H        1.40307727       4.05033546      16.81106504        0       1.00000000       0.00000006      -0.00000021       0.00000006      -0.00000033       0.00000146      -0.00000038
H        0.00000061       4.86040216       7.77172675        0       1.00000000       0.00000066       0.00000037       0.00000083      -0.00000183       0.00000144      -0.00000032
H        2.80615510       1.62013459      16.81106508        0       1.00000000       0.00000134      -0.00000084      -0.00000084      -0.00000062      -0.00000207      -0.00000242
H        4.20923389       2.43020085       7.77172745        0       1.00000000       0.00000012      -0.00000030       0.00000015       0.00000194       0.00000161       0.00000023
H        4.20923248       4.05033539      16.81106541        0       1.00000000      -0.00000021      -0.00000021       0.00000101       0.00000037       0.00000039      -0.00000134
H        2.80615479      -0.00000027       7.77172816        0       1.00000000       0.00000071       0.00000081      -0.00000009      -0.00000078      -0.00000130      -0.00000030
H        5.61231046       1.62013413      16.81106499        0       1.00000000      -0.00000141      -0.00000091       0.00000033       0.00000073      -0.00000180      -0.00000069
H        1.40307808       2.43020093       7.77172740        0       1.00000000      -0.00000092       0.00000016      -0.00000004       0.00000043      -0.00000120      -0.00000271
20
Lattice="5.612310241546866 0.0 0.0 0.0 4.860403243099165 0.0 0.0 0.0 24.582432123328676" Properties=species:S:1:pos:R:3:tags:I:1:masses:R:1:momenta:R:3:forces:R:3 KEmax=25.851991011651638 iter=239999 volume=670.5618179858607 ns_energy=-13.620080613391117 last_walked_iter_clone=239819 energy=-13.620080613396247 stress="0.025725804814942566 -4.4498221140878456e-10 -3.559971021675893e-09 -4.4498221140878456e-10 0.02572581810171217 2.3244443015917025e-08 -3.559971021675893e-09 2.3244443015917025e-08 0.013286988911645975" pbc="T T F"
H        1.40307756       0.81006721      10.00000000        3       1.00000000       0.00000000       0.00000000       0.00000000       0.00000000       0.00000000       0.00000000
H        4.20923268       0.81006721      10.00000000        3       1.00000000       0.00000000       0.00000000       0.00000000       0.00000000       0.00000000       0.00000000
H        0.00000000       3.24026883      10.00000000        3       1.00000000       0.00000000       0.00000000       0.00000000       0.00000000       0.00000000       0.00000000
H        2.80615512       3.24026883      10.00000000        3       1.00000000       0.00000000       0.00000000       0.00000000       0.00000000       0.00000000       0.00000000
H        0.00000000       1.62013441      12.29121606        2       1.00000000       0.00000000       0.00000000       0.00000000       0.00000000       0.00000000       0.00000000
H        2.80615512       1.62013441      12.29121606        2       1.00000000       0.00000000       0.00000000       0.00000000       0.00000000       0.00000000       0.00000000
H        1.40307756       4.05033604      12.29121606        2       1.00000000       0.00000000       0.00000000       0.00000000       0.00000000       0.00000000       0.00000000
H        4.20923268       4.05033604      12.29121606        2       1.00000000       0.00000000       0.00000000       0.00000000       0.00000000       0.00000000       0.00000000
H        0.00000000       0.00000000      14.58243212        1       1.00000000       0.00000000       0.00000000       0.00000000       0.00000000       0.00000000       0.00000000
H        2.80615512       0.00000000      14.58243212        1       1.00000000       0.00000000       0.00000000       0.00000000       0.00000000       0.00000000       0.00000000
H        1.40307756       2.43020162      14.58243212        1       1.00000000       0.00000000       0.00000000       0.00000000       0.00000000       0.00000000       0.00000000
H        4.20923268       2.43020162      14.58243212        1       1.00000000       0.00000000       0.00000000       0.00000000       0.00000000       0.00000000       0.00000000
H        1.40307677       4.05033563      16.81106433        0       1.00000000      -0.00000067      -0.00000051      -0.00000010      -0.00000033       0.00000146      -0.00000038
H        0.00000060       4.86040253       7.77172712        0       1.00000000      -0.00000045       0.00000001       0.00000004      -0.00000183       0.00000144      -0.00000032
H        2.80615529       1.62013398      16.81106463        0       1.00000000       0.00000025       0.00000060       0.00000049      -0.00000062      -0.00000207      -0.00000242
H        4.20923316       2.43020130       7.77172629        0       1.00000000       0.00000017       0.00000009       0.00000012       0.00000194       0.00000161       0.00000023
H        4.20923203       4.05033625      16.81106509        0       1.00000000       0.00000029       0.00000117       0.00000056       0.00000037       0.00000039      -0.00000134
H        2.80615562       0.00000052       7.77172730        0       1.00000000      -0.00000010       0.00000124      -0.00000081      -0.00000078      -0.00000130      -0.00000030
H        0.00000020       1.62013394      16.81106551        0       1.00000000       0.00000055       0.00000001      -0.00000203       0.00000073      -0.00000180      -0.00000069
H        1.40307812       2.43020200       7.77172735        0       1.00000000       0.00000022      -0.00000185      -0.00000009       0.00000043      -0.00000120      -0.00000271
20
Lattice="5.612310241546866 0.0 0.0 0.0 4.860403243099165 0.0 0.0 0.0 24.582432123328676" Properties=species:S:1:pos:R:3:tags:I:1:masses:R:1:momenta:R:3:forces:R:3 KEmax=25.851991011651638 iter=239999 volume=670.5618179858607 ns_energy=-13.620080613391218 last_walked_iter_clone=239942 energy=-13.620080613396247 stress="0.025725804814942566 -4.4498221140878456e-10 -3.559971021675893e-09 -4.4498221140878456e-10 0.02572581810171217 2.3244443015917025e-08 -3.559971021675893e-09 2.3244443015917025e-08 0.013286988911645975" pbc="T T F"
H        1.40307756       0.81006721      10.00000000        3       1.00000000       0.00000000       0.00000000       0.00000000       0.00000000       0.00000000       0.00000000
H        4.20923268       0.81006721      10.00000000        3       1.00000000       0.00000000       0.00000000       0.00000000       0.00000000       0.00000000       0.00000000
H        0.00000000       3.24026883      10.00000000        3       1.00000000       0.00000000       0.00000000       0.00000000       0.00000000       0.00000000       0.00000000
H        2.80615512       3.24026883      10.00000000        3       1.00000000       0.00000000       0.00000000       0.00000000       0.00000000       0.00000000       0.00000000
H        0.00000000       1.62013441      12.29121606        2       1.00000000       0.00000000       0.00000000       0.00000000       0.00000000       0.00000000       0.00000000
H        2.80615512       1.62013441      12.29121606        2       1.00000000       0.00000000       0.00000000       0.00000000       0.00000000       0.00000000       0.00000000
H        1.40307756       4.05033604      12.29121606        2       1.00000000       0.00000000       0.00000000       0.00000000       0.00000000       0.00000000       0.00000000
H        4.20923268       4.05033604      12.29121606        2       1.00000000       0.00000000       0.00000000       0.00000000       0.00000000       0.00000000       0.00000000
H        0.00000000       0.00000000      14.58243212        1       1.00000000       0.00000000       0.00000000       0.00000000       0.00000000       0.00000000       0.00000000
H        2.80615512       0.00000000      14.58243212        1       1.00000000       0.00000000       0.00000000       0.00000000       0.00000000       0.00000000       0.00000000
H        1.40307756       2.43020162      14.58243212        1       1.00000000       0.00000000       0.00000000       0.00000000       0.00000000       0.00000000       0.00000000
H        4.20923268       2.43020162      14.58243212        1       1.00000000       0.00000000       0.00000000       0.00000000       0.00000000       0.00000000       0.00000000
H        1.40307751       4.05033678      16.81106454        0       1.00000000       0.00000118      -0.00000034      -0.00000081      -0.00000033       0.00000146      -0.00000038
H        5.61231100       4.86040362       7.77172698        0       1.00000000       0.00000077       0.00000048      -0.00000179      -0.00000183       0.00000144      -0.00000032
H        2.80615566       1.62013453      16.81106500        0       1.00000000      -0.00000027      -0.00000049      -0.00000050      -0.00000062      -0.00000207      -0.00000242
H        4.20923298       2.43020197       7.77172694        0       1.00000000       0.00000110       0.00000097      -0.00000048       0.00000194       0.00000161       0.00000023
H        4.20923371       4.05033597      16.81106521        0       1.00000000       0.00000128      -0.00000018       0.00000084       0.00000037       0.00000039      -0.00000134
H        2.80615512       0.00000072       7.77172729        0       1.00000000       0.00000036      -0.00000132      -0.00000015      -0.00000078      -0.00000130      -0.00000030
H        5.61231094       1.62013499      16.81106541        0       1.00000000      -0.00000001       0.00000080       0.00000028       0.00000073      -0.00000180      -0.00000069
H        1.40307770       2.43020161       7.77172757        0       1.00000000       0.00000048       0.00000002      -0.00000033       0.00000043      -0.00000120      -0.00000271
20
Lattice="5.612310241546866 0.0 0.0 0.0 4.860403243099165 0.0 0.0 0.0 24.582432123328676" Properties=species:S:1:pos:R:3:tags:I:1:masses:R:1:momenta:R:3:forces:R:3 KEmax=25.851991011651638 iter=239999 volume=670.5618179858607 ns_energy=-13.62008061339076 last_walked_iter_clone=238649 energy=-13.620080613396247 stress="0.025725804814942566 -4.4498221140878456e-10 -3.559971021675893e-09 -4.4498221140878456e-10 0.02572581810171217 2.3244443015917025e-08 -3.559971021675893e-09 2.3244443015917025e-08 0.013286988911645975" pbc="T T F"
H        1.40307756       0.81006721      10.00000000        3       1.00000000       0.00000000       0.00000000       0.00000000       0.00000000       0.00000000       0.00000000
H        4.20923268       0.81006721      10.00000000        3       1.00000000       0.00000000       0.00000000       0.00000000       0.00000000       0.00000000       0.00000000
H        0.00000000       3.24026883      10.00000000        3       1.00000000       0.00000000       0.00000000       0.00000000       0.00000000       0.00000000       0.00000000
H        2.80615512       3.24026883      10.00000000        3       1.00000000       0.00000000       0.00000000       0.00000000       0.00000000       0.00000000       0.00000000
H        0.00000000       1.62013441      12.29121606        2       1.00000000       0.00000000       0.00000000       0.00000000       0.00000000       0.00000000       0.00000000
H        2.80615512       1.62013441      12.29121606        2       1.00000000       0.00000000       0.00000000       0.00000000       0.00000000       0.00000000       0.00000000
H        1.40307756       4.05033604      12.29121606        2       1.00000000       0.00000000       0.00000000       0.00000000       0.00000000       0.00000000       0.00000000
H        4.20923268       4.05033604      12.29121606        2       1.00000000       0.00000000       0.00000000       0.00000000       0.00000000       0.00000000       0.00000000
H        0.00000000       0.00000000      14.58243212        1       1.00000000       0.00000000       0.00000000       0.00000000       0.00000000       0.00000000       0.00000000
H        2.80615512       0.00000000      14.58243212        1       1.00000000       0.00000000       0.00000000       0.00000000       0.00000000       0.00000000       0.00000000
H        1.40307756       2.43020162      14.58243212        1       1.00000000       0.00000000       0.00000000       0.00000000       0.00000000       0.00000000       0.00000000
H        4.20923268       2.43020162      14.58243212        1       1.00000000       0.00000000       0.00000000       0.00000000       0.00000000       0.00000000       0.00000000
H        1.40307761       4.05033597      16.81106577        0       1.00000000      -0.00000113       0.00000001      -0.00000034      -0.00000033       0.00000146      -0.00000038
H        0.00000015      -0.00000011       7.77172749        0       1.00000000       0.00000047      -0.00000112       0.00000027      -0.00000183       0.00000144      -0.00000032
H        2.80615593       1.62013461      16.81106506        0       1.00000000       0.00000029      -0.00000003       0.00000163      -0.00000062      -0.00000207      -0.00000242
H        4.20923233       2.43020139       7.77172718        0       1.00000000      -0.00000015       0.00000020       0.00000040       0.00000194       0.00000161       0.00000023
H        4.20923324       4.05033592      16.81106505        0       1.00000000      -0.00000149      -0.00000019      -0.00000002       0.00000037       0.00000039      -0.00000134
H        2.80615451       0.00000064       7.77172663        0       1.00000000      -0.00000192       0.00000024       0.00000031      -0.00000078      -0.00000130      -0.00000030
H        0.00000050       1.62013463      16.81106508        0       1.00000000      -0.00000001      -0.00000088       0.00000180       0.00000073      -0.00000180      -0.00000069
H        1.40307766       2.43020231       7.77172729        0       1.00000000      -0.00000026       0.00000005       0.00000074       0.00000043      -0.00000120      -0.00000271
20
Lattice="5.612310241546866 0.0 0.0 0.0 4.860403243099165 0.0 0.0 0.0 24.582432123328676" Properties=species:S:1:pos:R:3:tags:I:1:masses:R:1:momenta:R:3:forces:R:3 KEmax=25.851991011651638 iter=239999 volume=670.5618179858607 ns_energy=-13.620080613390886 last_walked_iter_clone=239560 energy=-13.620080613396247 stress="0.025725804814942566 -4.4498221140878456e-10 -3.559971021675893e-09 -4.4498221140878456e-10 0.02572581810171217 2.3244443015917025e-08 -3.559971021675893e-09 2.3244443015917025e-08 0.013286988911645975" pbc="T T F"
H        1.40307756       0.81006721      10.00000000        3       1.00000000       0.00000000       0.00000000       0.00000000       0.00000000       0.00000000       0.00000000
H        4.20923268       0.81006721      10.00000000        3       1.00000000       0.00000000       0.00000000       0.00000000       0.00000000       0.00000000       0.00000000
H        0.00000000       3.24026883      10.00000000        3       1.00000000       0.00000000       0.00000000       0.00000000       0.00000000       0.00000000       0.00000000
H        2.80615512       3.24026883      10.00000000        3       1.00000000       0.00000000       0.00000000       0.00000000       0.00000000       0.00000000       0.00000000
H        0.00000000       1.62013441      12.29121606        2       1.00000000       0.00000000       0.00000000       0.00000000       0.00000000       0.00000000       0.00000000
H        2.80615512       1.62013441      12.29121606        2       1.00000000       0.00000000       0.00000000       0.00000000       0.00000000       0.00000000       0.00000000
H        1.40307756       4.05033604      12.29121606        2       1.00000000       0.00000000       0.00000000       0.00000000       0.00000000       0.00000000       0.00000000
H        4.20923268       4.05033604      12.29121606        2       1.00000000       0.00000000       0.00000000       0.00000000       0.00000000       0.00000000       0.00000000
H        0.00000000       0.00000000      14.58243212        1       1.00000000       0.00000000       0.00000000       0.00000000       0.00000000       0.00000000       0.00000000
H        2.80615512       0.00000000      14.58243212        1       1.00000000       0.00000000       0.00000000       0.00000000       0.00000000       0.00000000       0.00000000
H        1.40307756       2.43020162      14.58243212        1       1.00000000       0.00000000       0.00000000       0.00000000       0.00000000       0.00000000       0.00000000
H        4.20923268       2.43020162      14.58243212        1       1.00000000       0.00000000       0.00000000       0.00000000       0.00000000       0.00000000       0.00000000
H        1.40307774       4.05033594      16.81106447        0       1.00000000      -0.00000111       0.00000008      -0.00000060      -0.00000033       0.00000146      -0.00000038
H       -0.00000042      -0.00000002       7.77172772        0       1.00000000       0.00000061       0.00000069      -0.00000106      -0.00000183       0.00000144      -0.00000032
H        2.80615630       1.62013479      16.81106542        0       1.00000000      -0.00000103       0.00000078      -0.00000054      -0.00000062      -0.00000207      -0.00000242
H        4.20923168       2.43020151       7.77172755        0       1.00000000       0.00000055      -0.00000006      -0.00000177       0.00000194       0.00000161       0.00000023
H        4.20923303       4.05033607      16.81106404        0       1.00000000       0.00000064       0.00000050      -0.00000069       0.00000037       0.00000039      -0.00000134
H        2.80615472       0.00000012       7.77172780        0       1.00000000      -0.00000055       0.00000104      -0.00000032      -0.00000078      -0.00000130      -0.00000030
H        0.00000107       1.62013464      16.81106501        0       1.00000000       0.00000074      -0.00000038       0.00000090       0.00000073      -0.00000180      -0.00000069
H        1.40307705       2.43020186       7.77172710        0       1.00000000      -0.00000008       0.00000005       0.00000056       0.00000043      -0.00000120      -0.00000271
20
Lattice="5.612310241546866 0.0 0.0 0.0 4.860403243099165 0.0 0.0 0.0 24.582432123328676" Properties=species:S:1:pos:R:3:tags:I:1:masses:R:1:momenta:R:3:forces:R:3 KEmax=25.851991011651638 iter=239999 volume=670.5618179858607 ns_energy=-13.620080613390847 last_walked_iter_clone=239010 energy=-13.620080613396247 stress="0.025725804814942566 -4.4498221140878456e-10 -3.559971021675893e-09 -4.4498221140878456e-10 0.02572581810171217 2.3244443015917025e-08 -3.559971021675893e-09 2.3244443015917025e-08 0.013286988911645975" pbc="T T F"
H        1.40307756       0.81006721      10.00000000        3       1.00000000       0.00000000       0.00000000       0.00000000       0.00000000       0.00000000       0.00000000