20
Lattice="5.612310241546866 0.0 0.0 0.0 4.860403243099165 0.0 0.0 0.0 24.582432123328676" Properties=species:S:1:pos:R:3:tags:I:1:masses:R:1:momenta:R:3:forces:R:3 KEmax=25.851991011651638 iter=223750 volume=670.5618179858607 ns_energy=-13.620080613381425 last_walked_iter_clone=223593 energy=-13.620080613392254 stress="0.025725817836843766 -5.020226039150451e-09 1.1856763690590174e-08 -5.020226039150451e-09 0.025725804483304974 -3.4145985344779175e-09 1.1856763690590174e-08 -3.4145985344779175e-09 0.01328699982033633" pbc="T T F"
H        1.40307756       0.81006721      10.00000000        3       1.00000000       0.00000000       0.00000000       0.00000000       0.00000000       0.00000000       0.00000000
H        4.20923268       0.81006721      10.00000000        3       1.00000000       0.00000000       0.00000000       0.00000000       0.00000000       0.00000000       0.00000000
H        0.00000000       3.24026883      10.00000000        3       1.00000000       0.00000000       0.00000000       0.00000000       0.00000000       0.00000000       0.00000000
H        2.80615512       3.24026883      10.00000000        3       1.00000000       0.00000000       0.00000000       0.00000000       0.00000000       0.00000000       0.00000000
H        0.00000000       1.62013441      12.29121606        2       1.00000000       0.00000000       0.00000000       0.00000000       0.00000000       0.00000000       0.00000000
H        2.80615512       1.62013441      12.29121606        2       1.00000000       0.00000000       0.00000000       0.00000000       0.00000000       0.00000000       0.00000000
H        1.40307756       4.05033604      12.29121606        2       1.00000000       0.00000000       0.00000000       0.00000000       0.00000000       0.00000000       0.00000000
H        4.20923268       4.05033604      12.29121606        2       1.00000000       0.00000000       0.00000000       0.00000000       0.00000000       0.00000000       0.00000000
H        0.00000000       0.00000000      14.58243212        1       1.00000000       0.00000000       0.00000000       0.00000000       0.00000000       0.00000000       0.00000000
H        2.80615512       0.00000000      14.58243212        1       1.00000000       0.00000000       0.00000000       0.00000000       0.00000000       0.00000000       0.00000000
H        1.40307756       2.43020162      14.58243212        1       1.00000000       0.00000000       0.00000000       0.00000000       0.00000000       0.00000000       0.00000000
H        4.20923268       2.43020162      14.58243212        1       1.00000000       0.00000000       0.00000000       0.00000000       0.00000000       0.00000000       0.00000000
H        1.40307851       4.05033561      16.81106449        0       1.00000000      -0.00000043      -0.00000030       0.00000069      -0.00000189       0.00000330       0.00000067
H        5.61230993      -0.00000042       7.77172649        0       1.00000000      -0.00000002      -0.00000020      -0.00000045      -0.00000209       0.00000069       0.00000191
H        2.80615561       1.62013393      16.81106394        0       1.00000000      -0.00000127       0.00000058      -0.00000112       0.00000001      -0.00000012       0.00000046
H        4.20923115       2.43020200       7.77172779        0       1.00000000       0.00000211      -0.00000067       0.00000123       0.00000508      -0.00000067       0.00000070
H        4.20923320       4.05033499      16.81106464        0       1.00000000      -0.00000107       0.00000031      -0.00000038       0.00000010       0.00000039       0.00000225
H        2.80615488      -0.00000076       7.77172737        0       1.00000000      -0.00000018      -0.00000154       0.00000021       0.00000117      -0.00000000      -0.00000012
H        0.00000075       1.62013348      16.81106386        0       1.00000000      -0.00000080      -0.00000049      -0.00000067       0.00000057      -0.00000264      -0.00000231
H        1.40307578       2.43020126       7.77172776        0       1.00000000       0.00000170       0.00000050      -0.00000110      -0.00000406       0.00000055       0.00000173
20
Lattice="5.612310241546866 0.0 0.0 0.0 4.860403243099165 0.0 0.0 0.0 24.582432123328676" Properties=species:S:1:pos:R:3:tags:I:1:masses:R:1:momenta:R:3:forces:R:3 KEmax=25.851991011651638 iter=223750 volume=670.5618179858607 ns_energy=-13.620080613381262 last_walked_iter_clone=223714 energy=-13.620080613392254 stress="0.025725817836843766 -5.020226039150451e-09 1.1856763690590174e-08 -5.020226039150451e-09 0.025725804483304974 -3.4145985344779175e-09 1.1856763690590174e-08 -3.4145985344779175e-09 0.01328699982033633" pbc="T T F"
H        1.40307756       0.81006721      10.00000000        3       1.00000000       0.00000000       0.00000000       0.00000000       0.00000000       0.00000000       0.00000000
H        4.20923268       0.81006721      10.00000000        3       1.00000000       0.00000000       0.00000000       0.00000000       0.00000000       0.00000000       0.00000000
H        0.00000000       3.24026883      10.00000000        3       1.00000000       0.00000000       0.00000000       0.00000000       0.00000000       0.00000000       0.00000000
H        2.80615512       3.24026883      10.00000000        3       1.00000000       0.00000000       0.00000000       0.00000000       0.00000000       0.00000000       0.00000000
H        0.00000000       1.62013441      12.29121606        2       1.00000000       0.00000000       0.00000000       0.00000000       0.00000000       0.00000000       0.00000000
H        2.80615512       1.62013441      12.29121606        2       1.00000000       0.00000000       0.00000000       0.00000000       0.00000000       0.00000000       0.00000000
H        1.40307756       4.05033604      12.29121606        2       1.00000000       0.00000000       0.00000000       0.00000000       0.00000000       0.00000000       0.00000000
H        4.20923268       4.05033604      12.29121606        2       1.00000000       0.00000000       0.00000000       0.00000000       0.00000000       0.00000000       0.00000000
H        0.00000000       0.00000000      14.58243212        1       1.00000000       0.00000000       0.00000000       0.00000000       0.00000000       0.00000000       0.00000000
H        2.80615512       0.00000000      14.58243212        1       1.00000000       0.00000000       0.00000000       0.00000000       0.00000000       0.00000000       0.00000000
H        1.40307756       2.43020162      14.58243212        1       1.00000000       0.00000000       0.00000000       0.00000000       0.00000000       0.00000000       0.00000000
H        4.20923268       2.43020162      14.58243212        1       1.00000000       0.00000000       0.00000000       0.00000000       0.00000000       0.00000000       0.00000000
H        1.40307729       4.05033739      16.81106430        0       1.00000000       0.00000024       0.00000043       0.00000063      -0.00000189       0.00000330       0.00000067
H        5.61231088       4.86040314       7.77172792        0       1.00000000      -0.00000084      -0.00000081       0.00000121      -0.00000209       0.00000069       0.00000191
H        2.80615403       1.62013535      16.81106507        0       1.00000000       0.00000071       0.00000022      -0.00000029       0.00000001      -0.00000012       0.00000046
H        4.20923272       2.43020216       7.77172716        0       1.00000000      -0.00000018       0.00000053      -0.00000113       0.00000508      -0.00000067       0.00000070
H        4.20923365       4.05033718      16.81106543        0       1.00000000       0.00000099       0.00000060      -0.00000001       0.00000010       0.00000039       0.00000225
H        2.80615653       4.86040303       7.77172796        0       1.00000000       0.00000055      -0.00000007       0.00000059       0.00000117      -0.00000000      -0.00000012
H        5.61230855       1.62013575      16.81106559        0       1.00000000       0.00000082       0.00000004      -0.00000108       0.00000057      -0.00000264      -0.00000231
H        1.40307822       2.43020147       7.77172712        0       1.00000000      -0.00000007      -0.00000021       0.00000245      -0.00000406       0.00000055       0.00000173
20
Lattice="5.612310241546866 0.0 0.0 0.0 4.860403243099165 0.0 0.0 0.0 24.582432123328676" Properties=species:S:1:pos:R:3:tags:I:1:masses:R:1:momenta:R:3:forces:R:3 KEmax=25.851991011651638 iter=223750 volume=670.5618179858607 ns_energy=-13.620080613381383 last_walked_iter_clone=223452 energy=-13.620080613392254 stress="0.025725817836843766 -5.020226039150451e-09 1.1856763690590174e-08 -5.020226039150451e-09 0.025725804483304974 -3.4145985344779175e-09 1.1856763690590174e-08 -3.4145985344779175e-09 0.01328699982033633" pbc="T T F"
H        1.40307756       0.81006721      10.00000000        3       1.00000000       0.00000000       0.00000000       0.00000000       0.00000000       0.00000000       0.00000000
H        4.20923268       0.81006721      10.00000000        3       1.00000000       0.00000000       0.00000000       0.00000000       0.00000000       0.00000000       0.00000000
H        0.00000000       3.24026883      10.00000000        3       1.00000000       0.00000000       0.00000000       0.00000000       0.00000000       0.00000000       0.00000000
H        2.80615512       3.24026883      10.00000000        3       1.00000000       0.00000000       0.00000000       0.00000000       0.00000000       0.00000000       0.00000000
H        0.00000000       1.62013441      12.29121606        2       1.00000000       0.00000000       0.00000000       0.00000000       0.00000000       0.00000000       0.00000000
H        2.80615512       1.62013441      12.29121606        2       1.00000000       0.00000000       0.00000000       0.00000000       0.00000000       0.00000000       0.00000000
H        1.40307756       4.05033604      12.29121606        2       1.00000000       0.00000000       0.00000000       0.00000000       0.00000000       0.00000000       0.00000000
H        4.20923268       4.05033604      12.29121606        2       1.00000000       0.00000000       0.00000000       0.00000000       0.00000000       0.00000000       0.00000000
H        0.00000000       0.00000000      14.58243212        1       1.00000000       0.00000000       0.00000000       0.00000000       0.00000000       0.00000000       0.00000000
H        2.80615512       0.00000000      14.58243212        1       1.00000000       0.00000000       0.00000000       0.00000000       0.00000000       0.00000000       0.00000000
H        1.40307756       2.43020162      14.58243212        1       1.00000000       0.00000000       0.00000000       0.00000000       0.00000000       0.00000000       0.00000000
H        4.20923268       2.43020162      14.58243212        1       1.00000000       0.00000000       0.00000000       0.00000000       0.00000000       0.00000000       0.00000000
H        1.40307770       4.05033541      16.81106487        0       1.00000000       0.00000046       0.00000047       0.00000193      -0.00000189       0.00000330       0.00000067
H       -0.00000078      -0.00000140       7.77172715        0       1.00000000       0.00000108       0.00000131      -0.00000046      -0.00000209       0.00000069       0.00000191
H        2.80615567       1.62013398      16.81106599        0       1.00000000       0.00000050       0.00000091      -0.00000084       0.00000001      -0.00000012       0.00000046
H        4.20923265       2.43020078       7.77172684        0       1.00000000       0.00000098      -0.00000095      -0.00000109       0.00000508      -0.00000067       0.00000070
H        4.20923338       4.05033507      16.81106450        0       1.00000000      -0.00000013      -0.00000084      -0.00000091       0.00000010       0.00000039       0.00000225
H        2.80615456      -0.00000153       7.77172750        0       1.00000000      -0.00000039       0.00000128       0.00000307       0.00000117      -0.00000000      -0.00000012
H        5.61231067       1.62013397      16.81106534        0       1.00000000       0.00000022      -0.00000106       0.00000098       0.00000057      -0.00000264      -0.00000231
H        1.40307741       2.43020067       7.77172593        0       1.00000000       0.00000063      -0.00000000      -0.00000017      -0.00000406       0.00000055       0.00000173
20
Lattice="5.612310241546866 0.0 0.0 0.0 4.860403243099165 0.0 0.0 0.0 24.582432123328676" Properties=species:S:1:pos:R:3:tags:I:1:masses:R:1:momenta:R:3:forces:R:3 KEmax=25.851991011651638 iter=223750 volume=670.5618179858607 ns_energy=-13.620080613382411 last_walked_iter_clone=223308 energy=-13.620080613392254 stress="0.025725817836843766 -5.020226039150451e-09 1.1856763690590174e-08 -5.020226039150451e-09 0.025725804483304974 -3.4145985344779175e-09 1.1856763690590174e-08 -3.4145985344779175e-09 0.01328699982033633" pbc="T T F"
H        1.40307756       0.81006721      10.00000000        3       1.00000000       0.00000000       0.00000000       0.00000000       0.00000000       0.00000000       0.00000000
H        4.20923268       0.81006721      10.00000000        3       1.00000000       0.00000000       0.00000000       0.00000000       0.00000000       0.00000000       0.00000000
H        0.00000000       3.24026883      10.00000000        3       1.00000000       0.00000000       0.00000000       0.00000000       0.00000000       0.00000000       0.00000000
H        2.80615512       3.24026883      10.00000000        3       1.00000000       0.00000000       0.00000000       0.00000000       0.00000000       0.00000000       0.00000000
H        0.00000000       1.62013441      12.29121606        2       1.00000000       0.00000000       0.00000000       0.00000000       0.00000000       0.00000000       0.00000000
H        2.80615512       1.62013441      12.29121606        2       1.00000000       0.00000000       0.00000000       0.00000000       0.00000000       0.00000000       0.00000000
H        1.40307756       4.05033604      12.29121606        2       1.00000000       0.00000000       0.00000000       0.00000000       0.00000000       0.00000000       0.00000000
H        4.20923268       4.05033604      12.29121606        2       1.00000000       0.00000000       0.00000000       0.00000000       0.00000000       0.00000000       0.00000000
H        0.00000000       0.00000000      14.58243212        1       1.00000000       0.00000000       0.00000000       0.00000000       0.00000000       0.00000000       0.00000000
H        2.80615512       0.00000000      14.58243212        1       1.00000000       0.00000000       0.00000000       0.00000000       0.00000000       0.00000000       0.00000000
H        1.40307756       2.43020162      14.58243212        1       1.00000000       0.00000000       0.00000000       0.00000000       0.00000000       0.00000000       0.00000000
H        4.20923268       2.43020162      14.58243212        1       1.00000000       0.00000000       0.00000000       0.00000000       0.00000000       0.00000000       0.00000000
H        1.40307704       4.05033558      16.81106617        0       1.00000000       0.00000022       0.00000231      -0.00000097      -0.00000189       0.00000330       0.00000067
H        0.00000020      -0.00000095       7.77172618        0       1.00000000      -0.00000077      -0.00000096       0.00000012      -0.00000209       0.00000069       0.00000191
H        2.80615615       1.62013401      16.81106454        0       1.00000000       0.00000009       0.00000222       0.00000032       0.00000001      -0.00000012       0.00000046
H        4.20923294       2.43020113       7.77172678        0       1.00000000      -0.00000046       0.00000049       0.00000161       0.00000508      -0.00000067       0.00000070
H        4.20923280       4.05033615      16.81106479        0       1.00000000      -0.00000080       0.00000006       0.00000033       0.00000010       0.00000039       0.00000225
H        2.80615509      -0.00000160       7.77172690        0       1.00000000      -0.00000012      -0.00000070       0.00000023       0.00000117      -0.00000000      -0.00000012
H        5.61231107       1.62013430      16.81106534        0       1.00000000      -0.00000077      -0.00000041      -0.00000164       0.00000057      -0.00000264      -0.00000231
H        1.40307883       2.43020011       7.77172704        0       1.00000000      -0.00000045      -0.00000007       0.00000008      -0.00000406       0.00000055       0.00000173
20
Lattice="5.612310241546866 0.0 0.0 0.0 4.860403243099165 0.0 0.0 0.0 24.582432123328676" Properties=species:S:1:pos:R:3:tags:I:1:masses:R:1:momenta:R:3:forces:R:3 KEmax=25.851991011651638 iter=223750 volume=670.5618179858607 ns_energy=-13.62008061338131 last_walked_iter_clone=223442 energy=-13.620080613392254 stress="0.025725817836843766 -5.020226039150451e-09 1.1856763690590174e-08 -5.020226039150451e-09 0.025725804483304974 -3.4145985344779175e-09 1.1856763690590174e-08 -3.4145985344779175e-09 0.01328699982033633" pbc="T T F"
H        1.40307756       0.81006721      10.00000000        3       1.00000000       0.00000000       0.00000000       0.00000000       0.00000000       0.00000000       0.00000000
H        4.20923268       0.81006721      10.00000000        3       1.00000000       0.00000000       0.00000000       0.00000000       0.00000000       0.00000000       0.00000000
H        0.00000000       3.24026883      10.00000000        3       1.00000000       0.00000000       0.00000000       0.00000000       0.00000000       0.00000000       0.00000000
H        2.80615512       3.24026883      10.00000000        3       1.00000000       0.00000000       0.00000000       0.00000000       0.00000000       0.00000000       0.00000000
H        0.00000000       1.62013441      12.29121606        2       1.00000000       0.00000000       0.00000000       0.00000000       0.00000000       0.00000000       0.00000000
H        2.80615512       1.62013441      12.29121606        2       1.00000000       0.00000000       0.00000000       0.00000000       0.00000000       0.00000000       0.00000000
H        1.40307756       4.05033604      12.29121606        2       1.00000000       0.00000000       0.00000000       0.00000000       0.00000000       0.00000000       0.00000000
H        4.20923268       4.05033604      12.29121606        2       1.00000000       0.00000000       0.00000000       0.00000000       0.00000000       0.00000000       0.00000000
H        0.00000000       0.00000000      14.58243212        1       1.00000000       0.00000000       0.00000000       0.00000000       0.00000000       0.00000000       0.00000000
H        2.80615512       0.00000000      14.58243212        1       1.00000000       0.00000000       0.00000000       0.00000000       0.00000000       0.00000000       0.00000000
H        1.40307756       2.43020162      14.58243212        1       1.00000000       0.00000000       0.00000000       0.00000000       0.00000000       0.00000000       0.00000000
H        4.20923268       2.43020162      14.58243212        1       1.00000000       0.00000000       0.00000000       0.00000000       0.00000000       0.00000000       0.00000000
H        1.40307820       4.05033725      16.81106584        0       1.00000000       0.00000165      -0.00000154       0.00000004      -0.00000189       0.00000330       0.00000067
H       -0.00000058      -0.00000129       7.77172584        0       1.00000000       0.00000059      -0.00000057       0.00000037      -0.00000209       0.00000069       0.00000191
H        2.80615555       1.62013496      16.81106460        0       1.00000000       0.00000004      -0.00000101      -0.00000036       0.00000001      -0.00000012       0.00000046
H        4.20923192       2.43020116       7.77172759        0       1.00000000       0.00000003      -0.00000062      -0.00000016       0.00000508      -0.00000067       0.00000070
H        4.20923362       4.05033671      16.81106541        0       1.00000000       0.00000048      -0.00000096      -0.00000131       0.00000010       0.00000039       0.00000225
H        2.80615395       4.86040242       7.77172748        0       1.00000000      -0.00000017       0.00000180      -0.00000129       0.00000117      -0.00000000      -0.00000012
H        0.00000020       1.62013559      16.81106514        0       1.00000000      -0.00000126       0.00000007       0.00000013       0.00000057      -0.00000264      -0.00000231
H        1.40307643       2.43020136       7.77172644        0       1.00000000       0.00000045       0.00000171       0.00000186      -0.00000406       0.00000055       0.00000173
20
Lattice="5.612310241546866 0.0 0.0 0.0 4.860403243099165 0.0 0.0 0.0 24.582432123328676" Properties=species:S:1:pos:R:3:tags:I:1:masses:R:1:momenta:R:3:forces:R:3 KEmax=25.851991011651638 iter=223750 volume=670.5618179858607 ns_energy=-13.620080613381397 last_walked_iter_clone=223397 energy=-13.620080613392254 stress="0.025725817836843766 -5.020226039150451e-09 1.1856763690590174e-08 -5.020226039150451e-09 0.025725804483304974 -3.4145985344779175e-09 1.1856763690590174e-08 -3.4145985344779175e-09 0.01328699982033633" pbc="T T F"
H        1.40307756       0.81006721      10.00000000        3       1.00000000       0.00000000       0.00000000       0.00000000       0.00000000       0.00000000       0.00000000
H        4.20923268       0.81006721      10.00000000        3       1.00000000       0.00000000       0.00000000       0.00000000       0.00000000       0.00000000       0.00000000
H        0.00000000       3.24026883      10.00000000        3       1.00000000       0.00000000       0.00000000       0.00000000       0.00000000       0.00000000       0.00000000
H        2.80615512       3.24026883      10.00000000        3       1.00000000       0.00000000       0.00000000       0.00000000       0.00000000       0.00000000       0.00000000
H        0.00000000       1.62013441      12.29121606        2       1.00000000       0.00000000       0.00000000       0.00000000       0.00000000       0.00000000       0.00000000
H        2.80615512       1.62013441      12.29121606        2       1.00000000       0.00000000       0.00000000       0.00000000       0.00000000       0.00000000       0.00000000
H        1.40307756       4.05033604      12.29121606        2       1.00000000       0.00000000       0.00000000       0.00000000       0.00000000       0.00000000       0.00000000
H        4.20923268       4.05033604      12.29121606        2       1.00000000       0.00000000       0.00000000       0.00000000       0.00000000       0.00000000       0.00000000
H        0.00000000       0.00000000      14.58243212        1       1.00000000       0.00000000       0.00000000       0.00000000       0.00000000       0.00000000       0.00000000
H        2.80615512       0.00000000      14.58243212        1       1.00000000       0.00000000       0.00000000       0.00000000       0.00000000       0.00000000       0.00000000
H        1.40307756       2.43020162      14.58243212        1       1.00000000       0.00000000       0.00000000       0.00000000       0.00000000       0.00000000       0.00000000
H        4.20923268       2.43020162      14.58243212        1       1.00000000       0.00000000       0.00000000       0.00000000       0.00000000       0.00000000       0.00000000
H        1.40307699       4.05033701      16.81106576        0       1.00000000       0.00000021       0.00000080      -0.00000064      -0.00000189       0.00000330       0.00000067
H        5.61231138       0.00000076       7.77172612        0       1.00000000       0.00000043       0.00000178       0.00000109      -0.00000209       0.00000069       0.00000191
H        2.80615393       1.62013432      16.81106549        0       1.00000000      -0.00000017      -0.00000030      -0.00000032       0.00000001      -0.00000012       0.00000046
H        4.20923185       2.43020244       7.77172712        0       1.00000000      -0.00000151       0.00000041      -0.00000001       0.00000508      -0.00000067       0.00000070
H        4.20923263       4.05033599      16.81106437        0       1.00000000      -0.00000040       0.00000011      -0.00000006       0.00000010       0.00000039       0.00000225
H        2.80615624       4.86040300       7.77172715        0       1.00000000      -0.00000080      -0.00000125       0.00000154       0.00000117      -0.00000000      -0.00000012
H       -0.00000096       1.62013520      16.81106517        0       1.00000000       0.00000034       0.00000082       0.00000016       0.00000057      -0.00000264      -0.00000231
H        1.40307736       2.43020060       7.77172703        0       1.00000000       0.00000086      -0.00000086      -0.00000104      -0.00000406       0.00000055       0.00000173
20
Lattice="5.612310241546866 0.0 0.0 0.0 4.860403243099165 0.0 0.0 0.0 24.582432123328676" Properties=species:S:1:pos:R:3:tags:I:1:masses:R:1:momenta:R:3:forces:R:3 KEmax=25.851991011651638 iter=223750 volume=670.5618179858607 ns_energy=-13.620080613382394 last_walked_iter_clone=223590 energy=-13.620080613392254 stress="0.025725817836843766 -5.020226039150451e-09 1.1856763690590174e-08 -5.020226039150451e-09 0.025725804483304974 -3.4145985344779175e-09 1.1856763690590174e-08 -3.4145985344779175e-09 0.01328699982033633" pbc="T T F"
H        1.40307756       0.81006721      10.00000000        3       1.00000000       0.00000000       0.00000000       0.00000000       0.00000000       0.00000000       0.00000000
H        4.20923268       0.81006721      10.00000000        3       1.00000000       0.00000000       0.00000000       0.00000000       0.00000000       0.00000000       0.00000000
H        0.00000000       3.24026883      10.00000000        3       1.00000000       0.00000000       0.00000000       0.00000000       0.00000000       0.00000000       0.00000000
H        2.80615512       3.24026883      10.00000000        3       1.00000000       0.00000000       0.00000000       0.00000000       0.00000000       0.00000000       0.00000000
H        0.00000000       1.62013441      12.29121606        2       1.00000000       0.00000000       0.00000000       0.00000000       0.00000000       0.00000000       0.00000000
H        2.80615512       1.62013441      12.29121606        2       1.00000000       0.00000000       0.00000000       0.00000000       0.00000000       0.00000000       0.00000000
H        1.40307756       4.05033604      12.29121606        2       1.00000000       0.00000000       0.00000000       0.00000000       0.00000000       0.00000000       0.00000000
H        4.20923268       4.05033604      12.29121606        2       1.00000000       0.00000000       0.00000000       0.00000000       0.00000000       0.00000000       0.00000000
H        0.00000000       0.00000000      14.58243212        1       1.00000000       0.00000000       0.00000000       0.00000000       0.00000000       0.00000000       0.00000000
H        2.80615512       0.00000000      14.58243212        1       1.00000000       0.00000000       0.00000000       0.00000000       0.00000000       0.00000000       0.00000000
H        1.40307756       2.43020162      14.58243212        1       1.00000000       0.00000000       0.00000000       0.00000000       0.00000000       0.00000000       0.00000000
H        4.20923268       2.43020162      14.58243212        1       1.00000000       0.00000000       0.00000000       0.00000000       0.00000000       0.00000000       0.00000000
H        1.40307896       4.05033673      16.81106422        0       1.00000000       0.00000040       0.00000075      -0.00000033      -0.00000189       0.00000330       0.00000067
H        0.00000004       0.00000092       7.77172605        0       1.00000000       0.00000093      -0.00000014      -0.00000054      -0.00000209       0.00000069       0.00000191
H        2.80615543       1.62013440      16.81106426        0       1.00000000      -0.00000080       0.00000110      -0.00000023       0.00000001      -0.00000012       0.00000046
H        4.20923353       2.43020225       7.77172676        0       1.00000000      -0.00000131       0.00000072       0.00000043       0.00000508      -0.00000067       0.00000070
H        4.20923315       4.05033566      16.81106540        0       1.00000000      -0.00000018       0.00000172      -0.00000054       0.00000010       0.00000039       0.00000225
H        2.80615515       4.86040259       7.77172651        0       1.00000000      -0.00000084      -0.00000083       0.00000159       0.00000117      -0.00000000      -0.00000012
H        0.00000153       1.62013388      16.81106569        0       1.00000000       0.00000030      -0.00000002       0.00000048       0.00000057      -0.00000264      -0.00000231
H        1.40307798       2.43020200       7.77172695        0       1.00000000      -0.00000028      -0.00000071      -0.00000128      -0.00000406       0.00000055       0.00000173
20
Lattice="5.612310241546866 0.0 0.0 0.0 4.860403243099165 0.0 0.0 0.0 24.582432123328676" Properties=species:S:1:pos:R:3:tags:I:1:masses:R:1:momenta:R:3:forces:R:3 KEmax=25.851991011651638 iter=223750 volume=670.5618179858607 ns_energy=-13.620080613381242 last_walked_iter_clone=223598 energy=-13.620080613392254 stress="0.025725817836843766 -5.020226039150451e-09 1.1856763690590174e-08 -5.020226039150451e-09 0.025725804483304974 -3.4145985344779175e-09 1.1856763690590174e-08 -3.4145985344779175e-09 0.01328699982033633" pbc="T T F"
H        1.40307756       0.81006721      10.00000000        3       1.00000000       0.00000000       0.00000000       0.00000000       0.00000000       0.00000000       0.00000000