16
Lattice="5.612310241546866 0.0 0.0 0.0 4.860403243099165 0.0 0.0 0.0 44.58243212332868" Properties=species:S:1:pos:R:3:tags:I:1:masses:R:1:momenta:R:3:forces:R:3 KEmax=20.68159280932131 iter=27478 volume=1216.1236359717223 set_wall=T ns_energy=-10.496921407523857 last_walked_iter_clone=27410 energy=-10.49709999792363 stress="0.026498892344862635 7.671098880166928e-05 -0.00015656642449616583 7.671098880166928e-05 0.02660340494173929 9.601841285111605e-05 -0.00015656642449616583 9.601841285111605e-05 0.014921800894957295" pbc="T T F"
H        1.40307756       0.81006721      20.00000000        3       1.00000000       0.00000000       0.00000000       0.00000000       0.00000000       0.00000000       0.00000000
H        4.20923268       0.81006721      20.00000000        3       1.00000000       0.00000000       0.00000000       0.00000000       0.00000000       0.00000000       0.00000000
H        0.00000000       3.24026883      20.00000000        3       1.00000000       0.00000000       0.00000000       0.00000000       0.00000000       0.00000000       0.00000000
H        2.80615512       3.24026883      20.00000000        3       1.00000000       0.00000000       0.00000000       0.00000000       0.00000000       0.00000000       0.00000000
H        0.00000000       1.62013441      22.29121606        2       1.00000000       0.00000000       0.00000000       0.00000000       0.00000000       0.00000000       0.00000000
H        2.80615512       1.62013441      22.29121606        2       1.00000000       0.00000000       0.00000000       0.00000000       0.00000000       0.00000000       0.00000000
H        1.40307756       4.05033604      22.29121606        2       1.00000000       0.00000000       0.00000000       0.00000000       0.00000000       0.00000000       0.00000000
H        4.20923268       4.05033604      22.29121606        2       1.00000000       0.00000000       0.00000000       0.00000000       0.00000000       0.00000000       0.00000000
H        0.00000000       0.00000000      24.58243212        1       1.00000000       0.00000000       0.00000000       0.00000000       0.00000000       0.00000000       0.00000000
H        2.80615512       0.00000000      24.58243212        1       1.00000000       0.00000000       0.00000000       0.00000000       0.00000000       0.00000000       0.00000000
H        1.40307756       2.43020162      24.58243212        1       1.00000000       0.00000000       0.00000000       0.00000000       0.00000000       0.00000000       0.00000000
H        4.20923268       2.43020162      24.58243212        1       1.00000000       0.00000000       0.00000000       0.00000000       0.00000000       0.00000000       0.00000000
H       -0.00173347       1.61828020      26.80492981        0       1.00000000      -0.01265686      -0.00257397       0.00138167      -0.00255609      -0.00665168       0.00802462
H        4.21437543       4.04477390      26.80806010        0       1.00000000      -0.00937952       0.01184264       0.00223870       0.04594263       0.00209588       0.00090088
H        2.80426685       1.62098451      26.81052543        0       1.00000000       0.01216571       0.00109480      -0.00279498      -0.00451200       0.01317356       0.00170936
H        1.40547347       4.04621280      26.82049538        0       1.00000000      -0.00751834       0.00322760       0.00119852      -0.02582012      -0.01660623       0.00237876
16
Lattice="5.612310241546866 0.0 0.0 0.0 4.860403243099165 0.0 0.0 0.0 44.58243212332868" Properties=species:S:1:pos:R:3:tags:I:1:masses:R:1:momenta:R:3:forces:R:3 KEmax=20.68159280932131 iter=27478 volume=1216.1236359717223 set_wall=T ns_energy=-10.496910733232198 last_walked_iter_clone=27447 energy=-10.49709999792363 stress="0.026498892344862635 7.671098880166928e-05 -0.00015656642449616583 7.671098880166928e-05 0.02660340494173929 9.601841285111605e-05 -0.00015656642449616583 9.601841285111605e-05 0.014921800894957295" pbc="T T F"
H        1.40307756       0.81006721      20.00000000        3       1.00000000       0.00000000       0.00000000       0.00000000       0.00000000       0.00000000       0.00000000
H        4.20923268       0.81006721      20.00000000        3       1.00000000       0.00000000       0.00000000       0.00000000       0.00000000       0.00000000       0.00000000
H        0.00000000       3.24026883      20.00000000        3       1.00000000       0.00000000       0.00000000       0.00000000       0.00000000       0.00000000       0.00000000
H        2.80615512       3.24026883      20.00000000        3       1.00000000       0.00000000       0.00000000       0.00000000       0.00000000       0.00000000       0.00000000
H        0.00000000       1.62013441      22.29121606        2       1.00000000       0.00000000       0.00000000       0.00000000       0.00000000       0.00000000       0.00000000
H        2.80615512       1.62013441      22.29121606        2       1.00000000       0.00000000       0.00000000       0.00000000       0.00000000       0.00000000       0.00000000
H        1.40307756       4.05033604      22.29121606        2       1.00000000       0.00000000       0.00000000       0.00000000       0.00000000       0.00000000       0.00000000
H        4.20923268       4.05033604      22.29121606        2       1.00000000       0.00000000       0.00000000       0.00000000       0.00000000       0.00000000       0.00000000
H        0.00000000       0.00000000      24.58243212        1       1.00000000       0.00000000       0.00000000       0.00000000       0.00000000       0.00000000       0.00000000
H        2.80615512       0.00000000      24.58243212        1       1.00000000       0.00000000       0.00000000       0.00000000       0.00000000       0.00000000       0.00000000
H        1.40307756       2.43020162      24.58243212        1       1.00000000       0.00000000       0.00000000       0.00000000       0.00000000       0.00000000       0.00000000
H        4.20923268       2.43020162      24.58243212        1       1.00000000       0.00000000       0.00000000       0.00000000       0.00000000       0.00000000       0.00000000
H        5.61371036       1.63238853      26.81410576        0       1.00000000       0.00619952      -0.01444197       0.00016078      -0.00255609      -0.00665168       0.00802462
H        4.20995392       4.05388549      26.81141331        0       1.00000000       0.00028279       0.00599944      -0.01672411       0.04594263       0.00209588       0.00090088
H        2.81119384       1.62194302      26.80914117        0       1.00000000       0.00124107      -0.01085561       0.00269082      -0.00451200       0.01317356       0.00170936
H        1.40486602       4.05762422      26.80562745        0       1.00000000      -0.00269417       0.00163023      -0.00755379      -0.02582012      -0.01660623       0.00237876
16
Lattice="5.612310241546866 0.0 0.0 0.0 4.860403243099165 0.0 0.0 0.0 44.58243212332868" Properties=species:S:1:pos:R:3:tags:I:1:masses:R:1:momenta:R:3:forces:R:3 KEmax=20.68159280932131 iter=27478 volume=1216.1236359717223 set_wall=T ns_energy=-10.496909485884695 last_walked_iter_clone=27419 energy=-10.49709999792363 stress="0.026498892344862635 7.671098880166928e-05 -0.00015656642449616583 7.671098880166928e-05 0.02660340494173929 9.601841285111605e-05 -0.00015656642449616583 9.601841285111605e-05 0.014921800894957295" pbc="T T F"
H        1.40307756       0.81006721      20.00000000        3       1.00000000       0.00000000       0.00000000       0.00000000       0.00000000       0.00000000       0.00000000
H        4.20923268       0.81006721      20.00000000        3       1.00000000       0.00000000       0.00000000       0.00000000       0.00000000       0.00000000       0.00000000
H        0.00000000       3.24026883      20.00000000        3       1.00000000       0.00000000       0.00000000       0.00000000       0.00000000       0.00000000       0.00000000
H        2.80615512       3.24026883      20.00000000        3       1.00000000       0.00000000       0.00000000       0.00000000       0.00000000       0.00000000       0.00000000
H        0.00000000       1.62013441      22.29121606        2       1.00000000       0.00000000       0.00000000       0.00000000       0.00000000       0.00000000       0.00000000
H        2.80615512       1.62013441      22.29121606        2       1.00000000       0.00000000       0.00000000       0.00000000       0.00000000       0.00000000       0.00000000
H        1.40307756       4.05033604      22.29121606        2       1.00000000       0.00000000       0.00000000       0.00000000       0.00000000       0.00000000       0.00000000
H        4.20923268       4.05033604      22.29121606        2       1.00000000       0.00000000       0.00000000       0.00000000       0.00000000       0.00000000       0.00000000
H        0.00000000       0.00000000      24.58243212        1       1.00000000       0.00000000       0.00000000       0.00000000       0.00000000       0.00000000       0.00000000
H        2.80615512       0.00000000      24.58243212        1       1.00000000       0.00000000       0.00000000       0.00000000       0.00000000       0.00000000       0.00000000
H        1.40307756       2.43020162      24.58243212        1       1.00000000       0.00000000       0.00000000       0.00000000       0.00000000       0.00000000       0.00000000
H        4.20923268       2.43020162      24.58243212        1       1.00000000       0.00000000       0.00000000       0.00000000       0.00000000       0.00000000       0.00000000
H        0.00221093       1.62364867      26.80443384        0       1.00000000      -0.01834064       0.00845483      -0.00262956      -0.00255609      -0.00665168       0.00802462
H        4.20516856       4.05618255      26.81131164        0       1.00000000      -0.00411261       0.00172102       0.00824687       0.04594263       0.00209588       0.00090088
H        2.80695301       1.62185728      26.80678409        0       1.00000000       0.00429492      -0.00970910       0.01049061      -0.00451200       0.01317356       0.00170936
H        1.40102308       4.05168610      26.80311968        0       1.00000000      -0.00208405      -0.00046905       0.00693689      -0.02582012      -0.01660623       0.00237876
16
Lattice="5.612310241546866 0.0 0.0 0.0 4.860403243099165 0.0 0.0 0.0 44.58243212332868" Properties=species:S:1:pos:R:3:tags:I:1:masses:R:1:momenta:R:3:forces:R:3 KEmax=20.68159280932131 iter=27478 volume=1216.1236359717223 set_wall=T ns_energy=-10.496930515636043 last_walked_iter_clone=27416 energy=-10.49709999792363 stress="0.026498892344862635 7.671098880166928e-05 -0.00015656642449616583 7.671098880166928e-05 0.02660340494173929 9.601841285111605e-05 -0.00015656642449616583 9.601841285111605e-05 0.014921800894957295" pbc="T T F"
H        1.40307756       0.81006721      20.00000000        3       1.00000000       0.00000000       0.00000000       0.00000000       0.00000000       0.00000000       0.00000000
H        4.20923268       0.81006721      20.00000000        3       1.00000000       0.00000000       0.00000000       0.00000000       0.00000000       0.00000000       0.00000000
H        0.00000000       3.24026883      20.00000000        3       1.00000000       0.00000000       0.00000000       0.00000000       0.00000000       0.00000000       0.00000000
H        2.80615512       3.24026883      20.00000000        3       1.00000000       0.00000000       0.00000000       0.00000000       0.00000000       0.00000000       0.00000000
H        0.00000000       1.62013441      22.29121606        2       1.00000000       0.00000000       0.00000000       0.00000000       0.00000000       0.00000000       0.00000000
H        2.80615512       1.62013441      22.29121606        2       1.00000000       0.00000000       0.00000000       0.00000000       0.00000000       0.00000000       0.00000000
H        1.40307756       4.05033604      22.29121606        2       1.00000000       0.00000000       0.00000000       0.00000000       0.00000000       0.00000000       0.00000000
H        4.20923268       4.05033604      22.29121606        2       1.00000000       0.00000000       0.00000000       0.00000000       0.00000000       0.00000000       0.00000000
H        0.00000000       0.00000000      24.58243212        1       1.00000000       0.00000000       0.00000000       0.00000000       0.00000000       0.00000000       0.00000000
H        2.80615512       0.00000000      24.58243212        1       1.00000000       0.00000000       0.00000000       0.00000000       0.00000000       0.00000000       0.00000000
H        1.40307756       2.43020162      24.58243212        1       1.00000000       0.00000000       0.00000000       0.00000000       0.00000000       0.00000000       0.00000000
H        4.20923268       2.43020162      24.58243212        1       1.00000000       0.00000000       0.00000000       0.00000000       0.00000000       0.00000000       0.00000000
H        5.62084341       1.61825939      26.81206057        0       1.00000000       0.00650329       0.01597221      -0.00704679      -0.00255609      -0.00665168       0.00802462
H        4.21350575       4.05174246      26.81266332        0       1.00000000      -0.00577654       0.00185534       0.00050143       0.04594263       0.00209588       0.00090088
H        2.82135624       1.62401314      26.81165861        0       1.00000000      -0.00675157       0.00843359       0.00873793      -0.00451200       0.01317356       0.00170936
H        1.40909065       4.05323642      26.80568556        0       1.00000000       0.00231223      -0.00307749      -0.00671329      -0.02582012      -0.01660623       0.00237876
16
Lattice="5.612310241546866 0.0 0.0 0.0 4.860403243099165 0.0 0.0 0.0 44.58243212332868" Properties=species:S:1:pos:R:3:tags:I:1:masses:R:1:momenta:R:3:forces:R:3 KEmax=20.68159280932131 iter=27478 volume=1216.1236359717223 set_wall=T ns_energy=-10.496916716781756 last_walked_iter_clone=27350 energy=-10.49709999792363 stress="0.026498892344862635 7.671098880166928e-05 -0.00015656642449616583 7.671098880166928e-05 0.02660340494173929 9.601841285111605e-05 -0.00015656642449616583 9.601841285111605e-05 0.014921800894957295" pbc="T T F"
H        1.40307756       0.81006721      20.00000000        3       1.00000000       0.00000000       0.00000000       0.00000000       0.00000000       0.00000000       0.00000000
H        4.20923268       0.81006721      20.00000000        3       1.00000000       0.00000000       0.00000000       0.00000000       0.00000000       0.00000000       0.00000000
H        0.00000000       3.24026883      20.00000000        3       1.00000000       0.00000000       0.00000000       0.00000000       0.00000000       0.00000000       0.00000000
H        2.80615512       3.24026883      20.00000000        3       1.00000000       0.00000000       0.00000000       0.00000000       0.00000000       0.00000000       0.00000000
H        0.00000000       1.62013441      22.29121606        2       1.00000000       0.00000000       0.00000000       0.00000000       0.00000000       0.00000000       0.00000000
H        2.80615512       1.62013441      22.29121606        2       1.00000000       0.00000000       0.00000000       0.00000000       0.00000000       0.00000000       0.00000000
H        1.40307756       4.05033604      22.29121606        2       1.00000000       0.00000000       0.00000000       0.00000000       0.00000000       0.00000000       0.00000000
H        4.20923268       4.05033604      22.29121606        2       1.00000000       0.00000000       0.00000000       0.00000000       0.00000000       0.00000000       0.00000000
H        0.00000000       0.00000000      24.58243212        1       1.00000000       0.00000000       0.00000000       0.00000000       0.00000000       0.00000000       0.00000000
H        2.80615512       0.00000000      24.58243212        1       1.00000000       0.00000000       0.00000000       0.00000000       0.00000000       0.00000000       0.00000000
H        1.40307756       2.43020162      24.58243212        1       1.00000000       0.00000000       0.00000000       0.00000000       0.00000000       0.00000000       0.00000000
H        4.20923268       2.43020162      24.58243212        1       1.00000000       0.00000000       0.00000000       0.00000000       0.00000000       0.00000000       0.00000000
H        0.00005917       1.62418852      26.80646616        0       1.00000000       0.00806653       0.00529312      -0.00969077      -0.00255609      -0.00665168       0.00802462
H        4.21473410       4.05413842      26.81259054        0       1.00000000      -0.00169383      -0.00338538       0.01327429       0.04594263       0.00209588       0.00090088
H        2.80737350       1.62817367      26.81616112        0       1.00000000      -0.01134889       0.00454587       0.00381189      -0.00451200       0.01317356       0.00170936
H        1.40804369       4.04959750      26.81851984        0       1.00000000      -0.00562542      -0.00921359       0.00261093      -0.02582012      -0.01660623       0.00237876
16
Lattice="5.612310241546866 0.0 0.0 0.0 4.860403243099165 0.0 0.0 0.0 44.58243212332868" Properties=species:S:1:pos:R:3:tags:I:1:masses:R:1:momenta:R:3:forces:R:3 KEmax=20.68159280932131 iter=27478 volume=1216.1236359717223 set_wall=T ns_energy=-10.49691901471371 last_walked_iter_clone=27354 energy=-10.49709999792363 stress="0.026498892344862635 7.671098880166928e-05 -0.00015656642449616583 7.671098880166928e-05 0.02660340494173929 9.601841285111605e-05 -0.00015656642449616583 9.601841285111605e-05 0.014921800894957295" pbc="T T F"
H        1.40307756       0.81006721      20.00000000        3       1.00000000       0.00000000       0.00000000       0.00000000       0.00000000       0.00000000       0.00000000
H        4.20923268       0.81006721      20.00000000        3       1.00000000       0.00000000       0.00000000       0.00000000       0.00000000       0.00000000       0.00000000
H        0.00000000       3.24026883      20.00000000        3       1.00000000       0.00000000       0.00000000       0.00000000       0.00000000       0.00000000       0.00000000
H        2.80615512       3.24026883      20.00000000        3       1.00000000       0.00000000       0.00000000       0.00000000       0.00000000       0.00000000       0.00000000
H        0.00000000       1.62013441      22.29121606        2       1.00000000       0.00000000       0.00000000       0.00000000       0.00000000       0.00000000       0.00000000
H        2.80615512       1.62013441      22.29121606        2       1.00000000       0.00000000       0.00000000       0.00000000       0.00000000       0.00000000       0.00000000
H        1.40307756       4.05033604      22.29121606        2       1.00000000       0.00000000       0.00000000       0.00000000       0.00000000       0.00000000       0.00000000
H        4.20923268       4.05033604      22.29121606        2       1.00000000       0.00000000       0.00000000       0.00000000       0.00000000       0.00000000       0.00000000
H        0.00000000       0.00000000      24.58243212        1       1.00000000       0.00000000       0.00000000       0.00000000       0.00000000       0.00000000       0.00000000
H        2.80615512       0.00000000      24.58243212        1       1.00000000       0.00000000       0.00000000       0.00000000       0.00000000       0.00000000       0.00000000
H        1.40307756       2.43020162      24.58243212        1       1.00000000       0.00000000       0.00000000       0.00000000       0.00000000       0.00000000       0.00000000
H        4.20923268       2.43020162      24.58243212        1       1.00000000       0.00000000       0.00000000       0.00000000       0.00000000       0.00000000       0.00000000
H        5.62039116       1.62094046      26.81501615        0       1.00000000      -0.00565520       0.00192537       0.00445436      -0.00255609      -0.00665168       0.00802462
H        4.20964586       4.05773073      26.80379831        0       1.00000000      -0.00919138      -0.01720829      -0.00401577       0.04594263       0.00209588       0.00090088
H        2.81102290       1.62435134      26.81128880        0       1.00000000       0.00338800       0.00714098       0.00242717      -0.00451200       0.01317356       0.00170936
H        1.40138006       4.04725037      26.80581025        0       1.00000000      -0.00088401      -0.00479674      -0.00598910      -0.02582012      -0.01660623       0.00237876
16
Lattice="5.612310241546866 0.0 0.0 0.0 4.860403243099165 0.0 0.0 0.0 44.58243212332868" Properties=species:S:1:pos:R:3:tags:I:1:masses:R:1:momenta:R:3:forces:R:3 KEmax=20.68159280932131 iter=27478 volume=1216.1236359717223 set_wall=T ns_energy=-10.496904910146275 last_walked_iter_clone=27386 energy=-10.49709999792363 stress="0.026498892344862635 7.671098880166928e-05 -0.00015656642449616583 7.671098880166928e-05 0.02660340494173929 9.601841285111605e-05 -0.00015656642449616583 9.601841285111605e-05 0.014921800894957295" pbc="T T F"
H        1.40307756       0.81006721      20.00000000        3       1.00000000       0.00000000       0.00000000       0.00000000       0.00000000       0.00000000       0.00000000
H        4.20923268       0.81006721      20.00000000        3       1.00000000       0.00000000       0.00000000       0.00000000       0.00000000       0.00000000       0.00000000
H        0.00000000       3.24026883      20.00000000        3       1.00000000       0.00000000       0.00000000       0.00000000       0.00000000       0.00000000       0.00000000
H        2.80615512       3.24026883      20.00000000        3       1.00000000       0.00000000       0.00000000       0.00000000       0.00000000       0.00000000       0.00000000
H        0.00000000       1.62013441      22.29121606        2       1.00000000       0.00000000       0.00000000       0.00000000       0.00000000       0.00000000       0.00000000
H        2.80615512       1.62013441      22.29121606        2       1.00000000       0.00000000       0.00000000       0.00000000       0.00000000       0.00000000       0.00000000
H        1.40307756       4.05033604      22.29121606        2       1.00000000       0.00000000       0.00000000       0.00000000       0.00000000       0.00000000       0.00000000
H        4.20923268       4.05033604      22.29121606        2       1.00000000       0.00000000       0.00000000       0.00000000       0.00000000       0.00000000       0.00000000
H        0.00000000       0.00000000      24.58243212        1       1.00000000       0.00000000       0.00000000       0.00000000       0.00000000       0.00000000       0.00000000
H        2.80615512       0.00000000      24.58243212        1       1.00000000       0.00000000       0.00000000       0.00000000       0.00000000       0.00000000       0.00000000
H        1.40307756       2.43020162      24.58243212        1       1.00000000       0.00000000       0.00000000       0.00000000       0.00000000       0.00000000       0.00000000
H        4.20923268       2.43020162      24.58243212        1       1.00000000       0.00000000       0.00000000       0.00000000       0.00000000       0.00000000       0.00000000
H       -0.00523364       1.61721480      26.81159805        0       1.00000000      -0.00289155       0.00198695       0.00816902      -0.00255609      -0.00665168       0.00802462
H        4.20899844       4.04899493      26.80892391        0       1.00000000       0.00840330       0.01181118       0.00436513       0.04594263       0.00209588       0.00090088
H        2.81176505       1.62057737      26.81104470        0       1.00000000       0.00450765      -0.00175418      -0.00951335      -0.00451200       0.01317356       0.00170936
H        1.40849536       4.05810802      26.81635734        0       1.00000000       0.00083826      -0.00773919      -0.00202645      -0.02582012      -0.01660623       0.00237876
16
Lattice="5.612310241546866 0.0 0.0 0.0 4.860403243099165 0.0 0.0 0.0 44.58243212332868" Properties=species:S:1:pos:R:3:tags:I:1:masses:R:1:momenta:R:3:forces:R:3 KEmax=20.68159280932131 iter=27478 volume=1216.1236359717223 set_wall=T ns_energy=-10.49690815231375 last_walked_iter_clone=27278 energy=-10.49709999792363 stress="0.026498892344862635 7.671098880166928e-05 -0.00015656642449616583 7.671098880166928e-05 0.02660340494173929 9.601841285111605e-05 -0.00015656642449616583 9.601841285111605e-05 0.014921800894957295" pbc="T T F"
H        1.40307756       0.81006721      20.00000000        3       1.00000000       0.00000000       0.00000000       0.00000000       0.00000000       0.00000000       0.00000000
H        4.20923268       0.81006721      20.00000000        3       1.00000000       0.00000000       0.00000000       0.00000000       0.00000000       0.00000000       0.00000000
H        0.00000000       3.24026883      20.00000000        3       1.00000000       0.00000000       0.00000000       0.00000000       0.00000000       0.00000000       0.00000000
H        2.80615512       3.24026883      20.00000000        3       1.00000000       0.00000000       0.00000000       0.00000000       0.00000000       0.00000000       0.00000000
H        0.00000000       1.62013441      22.29121606        2       1.00000000       0.00000000       0.00000000       0.00000000       0.00000000       0.00000000       0.00000000
H        2.80615512       1.62013441      22.29121606        2       1.00000000       0.00000000       0.00000000       0.00000000       0.00000000       0.00000000       0.00000000
H        1.40307756       4.05033604      22.29121606        2       1.00000000       0.00000000       0.00000000       0.00000000       0.00000000       0.00000000       0.00000000
H        4.20923268       4.05033604      22.29121606        2       1.00000000       0.00000000       0.00000000       0.00000000       0.00000000       0.00000000       0.00000000
H        0.00000000       0.00000000      24.58243212        1       1.00000000       0.00000000       0.00000000       0.00000000       0.00000000       0.00000000       0.00000000
H        2.80615512       0.00000000      24.58243212        1       1.00000000       0.00000000       0.00000000       0.00000000       0.00000000       0.00000000       0.00000000
H        1.40307756       2.43020162      24.58243212        1       1.00000000       0.00000000       0.00000000       0.00000000       0.00000000       0.00000000       0.00000000
H        4.20923268       2.43020162      24.58243212        1       1.00000000       0.00000000       0.00000000       0.00000000       0.00000000       0.00000000       0.00000000
H        0.00224668       1.61993511      26.81835196        0       1.00000000       0.00243386       0.00322125       0.00260401      -0.00255609      -0.00665168       0.00802462
H        4.21553772       4.04618555      26.81254579        0       1.00000000       0.00000503      -0.01727913      -0.00826456       0.04594263       0.00209588       0.00090088
H        2.80196822       1.62107814      26.80880819        0       1.00000000      -0.00988819      -0.00437222       0.00598708      -0.00451200       0.01317356       0.00170936
H        1.40465824       4.05276641      26.80524406        0       1.00000000       0.01078908       0.00437006      -0.00350557      -0.02582012      -0.01660623       0.00237876
16
Lattice="5.612310241546866 0.0 0.0 0.0 4.860403243099165 0.0 0.0 0.0 44.58243212332868" Properties=species:S:1:pos:R:3:tags:I:1:masses:R:1:momenta:R:3:forces:R:3 KEmax=20.68159280932131 iter=27478 volume=1216.1236359717223 set_wall=T ns_energy=-10.496948579783322 last_walked_iter_clone=27426 energy=-10.49709999792363 stress="0.026498892344862635 7.671098880166928e-05 -0.00015656642449616583 7.671098880166928e-05 0.02660340494173929 9.601841285111605e-05 -0.00015656642449616583 9.601841285111605e-05 0.014921800894957295" pbc="T T F"
H        1.40307756       0.81006721      20.00000000        3       1.00000000       0.00000000       0.00000000       0.00000000       0.00000000       0.00000000       0.00000000
H        4.20923268       0.81006721      20.00000000        3       1.00000000       0.00000000       0.00000000       0.00000000       0.00000000       0.00000000       0.00000000
H        0.00000000       3.24026883      20.00000000        3       1.00000000       0.00000000       0.00000000       0.00000000       0.00000000       0.00000000       0.00000000
H        2.80615512       3.24026883      20.00000000        3       1.00000000       0.00000000       0.00000000       0.00000000       0.00000000       0.00000000       0.00000000
H        0.00000000       1.62013441      22.29121606        2       1.00000000       0.00000000       0.00000000       0.00000000       0.00000000       0.00000000       0.00000000
H        2.80615512       1.62013441      22.29121606        2       1.00000000       0.00000000       0.00000000       0.00000000       0.00000000       0.00000000       0.00000000
H        1.40307756       4.05033604      22.29121606        2       1.00000000       0.00000000       0.00000000       0.00000000       0.00000000       0.00000000       0.00000000
H        4.20923268       4.05033604      22.29121606        2       1.00000000       0.00000000       0.00000000       0.00000000       0.00000000       0.00000000       0.00000000
H        0.00000000       0.00000000      24.58243212        1       1.00000000       0.00000000       0.00000000       0.00000000       0.00000000       0.00000000       0.00000000
H        2.80615512       0.00000000      24.58243212        1       1.00000000       0.00000000       0.00000000       0.00000000       0.00000000       0.00000000       0.00000000