16
Lattice="5.612310241546866 0.0 0.0 0.0 4.860403243099165 0.0 0.0 0.0 44.58243212332868" Properties=species:S:1:pos:R:3:tags:I:1:masses:R:1:momenta:R:3:forces:R:3 KEmax=20.68159280932131 iter=50063 volume=1216.1236359717223 set_wall=T ns_energy=-10.49752293667796 last_walked_iter_clone=49921 energy=-10.497522992626607 stress="0.026614232739553375 2.4050686642826175e-07 -4.83262750582437e-07 2.4050686642826175e-07 0.026613203833369087 -1.0344258050074472e-06 -4.83262750582437e-07 -1.0344258050074472e-06 0.015080065584276586" pbc="T T F"
H        1.40307756       0.81006721      20.00000000        3       1.00000000       0.00000000       0.00000000       0.00000000       0.00000000       0.00000000       0.00000000
H        4.20923268       0.81006721      20.00000000        3       1.00000000       0.00000000       0.00000000       0.00000000       0.00000000       0.00000000       0.00000000
H        0.00000000       3.24026883      20.00000000        3       1.00000000       0.00000000       0.00000000       0.00000000       0.00000000       0.00000000       0.00000000
H        2.80615512       3.24026883      20.00000000        3       1.00000000       0.00000000       0.00000000       0.00000000       0.00000000       0.00000000       0.00000000
H        0.00000000       1.62013441      22.29121606        2       1.00000000       0.00000000       0.00000000       0.00000000       0.00000000       0.00000000       0.00000000
H        2.80615512       1.62013441      22.29121606        2       1.00000000       0.00000000       0.00000000       0.00000000       0.00000000       0.00000000       0.00000000
H        1.40307756       4.05033604      22.29121606        2       1.00000000       0.00000000       0.00000000       0.00000000       0.00000000       0.00000000       0.00000000
H        4.20923268       4.05033604      22.29121606        2       1.00000000       0.00000000       0.00000000       0.00000000       0.00000000       0.00000000       0.00000000
H        0.00000000       0.00000000      24.58243212        1       1.00000000       0.00000000       0.00000000       0.00000000       0.00000000       0.00000000       0.00000000
H        2.80615512       0.00000000      24.58243212        1       1.00000000       0.00000000       0.00000000       0.00000000       0.00000000       0.00000000       0.00000000
H        1.40307756       2.43020162      24.58243212        1       1.00000000       0.00000000       0.00000000       0.00000000       0.00000000       0.00000000       0.00000000
H        4.20923268       2.43020162      24.58243212        1       1.00000000       0.00000000       0.00000000       0.00000000       0.00000000       0.00000000       0.00000000
H        5.61230353       1.62019173      26.81105326        0       1.00000000      -0.00008699       0.00004769       0.00009444      -0.00017939       0.00004269       0.00005872
H        4.20918135       4.05036343      26.81115250        0       1.00000000      -0.00002195      -0.00005228       0.00010285      -0.00002877       0.00002754      -0.00010489
H        2.80604943       1.62022547      26.81095802        0       1.00000000       0.00012373       0.00003903       0.00003457       0.00030718      -0.00015856      -0.00000461
H        1.40303965       4.05038624      26.81103880        0       1.00000000       0.00000933      -0.00013924      -0.00010217      -0.00005879       0.00017446       0.00019909
16
Lattice="5.612310241546866 0.0 0.0 0.0 4.860403243099165 0.0 0.0 0.0 44.58243212332868" Properties=species:S:1:pos:R:3:tags:I:1:masses:R:1:momenta:R:3:forces:R:3 KEmax=20.68159280932131 iter=50063 volume=1216.1236359717223 set_wall=T ns_energy=-10.497522937572489 last_walked_iter_clone=49828 energy=-10.497522992626607 stress="0.026614232739553375 2.4050686642826175e-07 -4.83262750582437e-07 2.4050686642826175e-07 0.026613203833369087 -1.0344258050074472e-06 -4.83262750582437e-07 -1.0344258050074472e-06 0.015080065584276586" pbc="T T F"
H        1.40307756       0.81006721      20.00000000        3       1.00000000       0.00000000       0.00000000       0.00000000       0.00000000       0.00000000       0.00000000
H        4.20923268       0.81006721      20.00000000        3       1.00000000       0.00000000       0.00000000       0.00000000       0.00000000       0.00000000       0.00000000
H        0.00000000       3.24026883      20.00000000        3       1.00000000       0.00000000       0.00000000       0.00000000       0.00000000       0.00000000       0.00000000
H        2.80615512       3.24026883      20.00000000        3       1.00000000       0.00000000       0.00000000       0.00000000       0.00000000       0.00000000       0.00000000
H        0.00000000       1.62013441      22.29121606        2       1.00000000       0.00000000       0.00000000       0.00000000       0.00000000       0.00000000       0.00000000
H        2.80615512       1.62013441      22.29121606        2       1.00000000       0.00000000       0.00000000       0.00000000       0.00000000       0.00000000       0.00000000
H        1.40307756       4.05033604      22.29121606        2       1.00000000       0.00000000       0.00000000       0.00000000       0.00000000       0.00000000       0.00000000
H        4.20923268       4.05033604      22.29121606        2       1.00000000       0.00000000       0.00000000       0.00000000       0.00000000       0.00000000       0.00000000
H        0.00000000       0.00000000      24.58243212        1       1.00000000       0.00000000       0.00000000       0.00000000       0.00000000       0.00000000       0.00000000
H        2.80615512       0.00000000      24.58243212        1       1.00000000       0.00000000       0.00000000       0.00000000       0.00000000       0.00000000       0.00000000
H        1.40307756       2.43020162      24.58243212        1       1.00000000       0.00000000       0.00000000       0.00000000       0.00000000       0.00000000       0.00000000
H        4.20923268       2.43020162      24.58243212        1       1.00000000       0.00000000       0.00000000       0.00000000       0.00000000       0.00000000       0.00000000
H        5.61221380       1.62014524      26.81106688        0       1.00000000      -0.00004191      -0.00007361       0.00001136      -0.00017939       0.00004269       0.00005872
H        4.20924497       4.05038153      26.81108516        0       1.00000000       0.00018204       0.00018085       0.00008522      -0.00002877       0.00002754      -0.00010489
H        2.80613609       1.62011859      26.81100194        0       1.00000000       0.00004621      -0.00012668      -0.00004200       0.00030718      -0.00015856      -0.00000461
H        1.40307517       4.05034899      26.81106291        0       1.00000000      -0.00011122       0.00012197       0.00005570      -0.00005879       0.00017446       0.00019909
16
Lattice="5.612310241546866 0.0 0.0 0.0 4.860403243099165 0.0 0.0 0.0 44.58243212332868" Properties=species:S:1:pos:R:3:tags:I:1:masses:R:1:momenta:R:3:forces:R:3 KEmax=20.68159280932131 iter=50063 volume=1216.1236359717223 set_wall=T ns_energy=-10.497522936825023 last_walked_iter_clone=49987 energy=-10.497522992626607 stress="0.026614232739553375 2.4050686642826175e-07 -4.83262750582437e-07 2.4050686642826175e-07 0.026613203833369087 -1.0344258050074472e-06 -4.83262750582437e-07 -1.0344258050074472e-06 0.015080065584276586" pbc="T T F"
H        1.40307756       0.81006721      20.00000000        3       1.00000000       0.00000000       0.00000000       0.00000000       0.00000000       0.00000000       0.00000000
H        4.20923268       0.81006721      20.00000000        3       1.00000000       0.00000000       0.00000000       0.00000000       0.00000000       0.00000000       0.00000000
H        0.00000000       3.24026883      20.00000000        3       1.00000000       0.00000000       0.00000000       0.00000000       0.00000000       0.00000000       0.00000000
H        2.80615512       3.24026883      20.00000000        3       1.00000000       0.00000000       0.00000000       0.00000000       0.00000000       0.00000000       0.00000000
H        0.00000000       1.62013441      22.29121606        2       1.00000000       0.00000000       0.00000000       0.00000000       0.00000000       0.00000000       0.00000000
H        2.80615512       1.62013441      22.29121606        2       1.00000000       0.00000000       0.00000000       0.00000000       0.00000000       0.00000000       0.00000000
H        1.40307756       4.05033604      22.29121606        2       1.00000000       0.00000000       0.00000000       0.00000000       0.00000000       0.00000000       0.00000000
H        4.20923268       4.05033604      22.29121606        2       1.00000000       0.00000000       0.00000000       0.00000000       0.00000000       0.00000000       0.00000000
H        0.00000000       0.00000000      24.58243212        1       1.00000000       0.00000000       0.00000000       0.00000000       0.00000000       0.00000000       0.00000000
H        2.80615512       0.00000000      24.58243212        1       1.00000000       0.00000000       0.00000000       0.00000000       0.00000000       0.00000000       0.00000000
H        1.40307756       2.43020162      24.58243212        1       1.00000000       0.00000000       0.00000000       0.00000000       0.00000000       0.00000000       0.00000000
H        4.20923268       2.43020162      24.58243212        1       1.00000000       0.00000000       0.00000000       0.00000000       0.00000000       0.00000000       0.00000000
H       -0.00000233       1.62016154      26.81117206        0       1.00000000       0.00016813       0.00000646      -0.00002220      -0.00017939       0.00004269       0.00005872
H        4.20932472       4.05047046      26.81108022        0       1.00000000      -0.00004533      -0.00002633       0.00012083      -0.00002877       0.00002754      -0.00010489
H        2.80620903       1.62014341      26.81103968        0       1.00000000      -0.00000782       0.00008325       0.00009577       0.00030718      -0.00015856      -0.00000461
H        1.40314812       4.05032876      26.81103106        0       1.00000000      -0.00007123       0.00003793       0.00006201      -0.00005879       0.00017446       0.00019909
16
Lattice="5.612310241546866 0.0 0.0 0.0 4.860403243099165 0.0 0.0 0.0 44.58243212332868" Properties=species:S:1:pos:R:3:tags:I:1:masses:R:1:momenta:R:3:forces:R:3 KEmax=20.68159280932131 iter=50063 volume=1216.1236359717223 set_wall=T ns_energy=-10.497522940320184 last_walked_iter_clone=49860 energy=-10.497522992626607 stress="0.026614232739553375 2.4050686642826175e-07 -4.83262750582437e-07 2.4050686642826175e-07 0.026613203833369087 -1.0344258050074472e-06 -4.83262750582437e-07 -1.0344258050074472e-06 0.015080065584276586" pbc="T T F"
H        1.40307756       0.81006721      20.00000000        3       1.00000000       0.00000000       0.00000000       0.00000000       0.00000000       0.00000000       0.00000000
H        4.20923268       0.81006721      20.00000000        3       1.00000000       0.00000000       0.00000000       0.00000000       0.00000000       0.00000000       0.00000000
H        0.00000000       3.24026883      20.00000000        3       1.00000000       0.00000000       0.00000000       0.00000000       0.00000000       0.00000000       0.00000000
H        2.80615512       3.24026883      20.00000000        3       1.00000000       0.00000000       0.00000000       0.00000000       0.00000000       0.00000000       0.00000000
H        0.00000000       1.62013441      22.29121606        2       1.00000000       0.00000000       0.00000000       0.00000000       0.00000000       0.00000000       0.00000000
H        2.80615512       1.62013441      22.29121606        2       1.00000000       0.00000000       0.00000000       0.00000000       0.00000000       0.00000000       0.00000000
H        1.40307756       4.05033604      22.29121606        2       1.00000000       0.00000000       0.00000000       0.00000000       0.00000000       0.00000000       0.00000000
H        4.20923268       4.05033604      22.29121606        2       1.00000000       0.00000000       0.00000000       0.00000000       0.00000000       0.00000000       0.00000000
H        0.00000000       0.00000000      24.58243212        1       1.00000000       0.00000000       0.00000000       0.00000000       0.00000000       0.00000000       0.00000000
H        2.80615512       0.00000000      24.58243212        1       1.00000000       0.00000000       0.00000000       0.00000000       0.00000000       0.00000000       0.00000000
H        1.40307756       2.43020162      24.58243212        1       1.00000000       0.00000000       0.00000000       0.00000000       0.00000000       0.00000000       0.00000000
H        4.20923268       2.43020162      24.58243212        1       1.00000000       0.00000000       0.00000000       0.00000000       0.00000000       0.00000000       0.00000000
H        5.61233213       1.62015862      26.81107928        0       1.00000000       0.00013331      -0.00003898       0.00011528      -0.00017939       0.00004269       0.00005872
H        4.20916343       4.05032714      26.81113651        0       1.00000000      -0.00010594       0.00006993      -0.00002283      -0.00002877       0.00002754      -0.00010489
H        2.80614573       1.62010721      26.81106601        0       1.00000000       0.00012179      -0.00003093      -0.00008620       0.00030718      -0.00015856      -0.00000461
H        1.40303832       4.05037419      26.81113284        0       1.00000000       0.00015535       0.00010387       0.00012559      -0.00005879       0.00017446       0.00019909
16
Lattice="5.612310241546866 0.0 0.0 0.0 4.860403243099165 0.0 0.0 0.0 44.58243212332868" Properties=species:S:1:pos:R:3:tags:I:1:masses:R:1:momenta:R:3:forces:R:3 KEmax=20.68159280932131 iter=50063 volume=1216.1236359717223 set_wall=T ns_energy=-10.49752293657317 last_walked_iter_clone=49931 energy=-10.497522992626607 stress="0.026614232739553375 2.4050686642826175e-07 -4.83262750582437e-07 2.4050686642826175e-07 0.026613203833369087 -1.0344258050074472e-06 -4.83262750582437e-07 -1.0344258050074472e-06 0.015080065584276586" pbc="T T F"
H        1.40307756       0.81006721      20.00000000        3       1.00000000       0.00000000       0.00000000       0.00000000       0.00000000       0.00000000       0.00000000
H        4.20923268       0.81006721      20.00000000        3       1.00000000       0.00000000       0.00000000       0.00000000       0.00000000       0.00000000       0.00000000
H        0.00000000       3.24026883      20.00000000        3       1.00000000       0.00000000       0.00000000       0.00000000       0.00000000       0.00000000       0.00000000
H        2.80615512       3.24026883      20.00000000        3       1.00000000       0.00000000       0.00000000       0.00000000       0.00000000       0.00000000       0.00000000
H        0.00000000       1.62013441      22.29121606        2       1.00000000       0.00000000       0.00000000       0.00000000       0.00000000       0.00000000       0.00000000
H        2.80615512       1.62013441      22.29121606        2       1.00000000       0.00000000       0.00000000       0.00000000       0.00000000       0.00000000       0.00000000
H        1.40307756       4.05033604      22.29121606        2       1.00000000       0.00000000       0.00000000       0.00000000       0.00000000       0.00000000       0.00000000
H        4.20923268       4.05033604      22.29121606        2       1.00000000       0.00000000       0.00000000       0.00000000       0.00000000       0.00000000       0.00000000
H        0.00000000       0.00000000      24.58243212        1       1.00000000       0.00000000       0.00000000       0.00000000       0.00000000       0.00000000       0.00000000
H        2.80615512       0.00000000      24.58243212        1       1.00000000       0.00000000       0.00000000       0.00000000       0.00000000       0.00000000       0.00000000
H        1.40307756       2.43020162      24.58243212        1       1.00000000       0.00000000       0.00000000       0.00000000       0.00000000       0.00000000       0.00000000
H        4.20923268       2.43020162      24.58243212        1       1.00000000       0.00000000       0.00000000       0.00000000       0.00000000       0.00000000       0.00000000
H        0.00000998       1.62009379      26.81111031        0       1.00000000       0.00000166      -0.00005625      -0.00009053      -0.00017939       0.00004269       0.00005872
H        4.20920833       4.05022560      26.81106048        0       1.00000000      -0.00017865      -0.00002153       0.00002460      -0.00002877       0.00002754      -0.00010489
H        2.80614675       1.62003911      26.81104929        0       1.00000000      -0.00001405       0.00022202       0.00005790       0.00030718      -0.00015856      -0.00000461
H        1.40307592       4.05030047      26.81098772        0       1.00000000       0.00004310      -0.00017635       0.00002200      -0.00005879       0.00017446       0.00019909
16
Lattice="5.612310241546866 0.0 0.0 0.0 4.860403243099165 0.0 0.0 0.0 44.58243212332868" Properties=species:S:1:pos:R:3:tags:I:1:masses:R:1:momenta:R:3:forces:R:3 KEmax=20.68159280932131 iter=50063 volume=1216.1236359717223 set_wall=T ns_energy=-10.497522938843392 last_walked_iter_clone=49957 energy=-10.497522992626607 stress="0.026614232739553375 2.4050686642826175e-07 -4.83262750582437e-07 2.4050686642826175e-07 0.026613203833369087 -1.0344258050074472e-06 -4.83262750582437e-07 -1.0344258050074472e-06 0.015080065584276586" pbc="T T F"
H        1.40307756       0.81006721      20.00000000        3       1.00000000       0.00000000       0.00000000       0.00000000       0.00000000       0.00000000       0.00000000
H        4.20923268       0.81006721      20.00000000        3       1.00000000       0.00000000       0.00000000       0.00000000       0.00000000       0.00000000       0.00000000
H        0.00000000       3.24026883      20.00000000        3       1.00000000       0.00000000       0.00000000       0.00000000       0.00000000       0.00000000       0.00000000
H        2.80615512       3.24026883      20.00000000        3       1.00000000       0.00000000       0.00000000       0.00000000       0.00000000       0.00000000       0.00000000
H        0.00000000       1.62013441      22.29121606        2       1.00000000       0.00000000       0.00000000       0.00000000       0.00000000       0.00000000       0.00000000
H        2.80615512       1.62013441      22.29121606        2       1.00000000       0.00000000       0.00000000       0.00000000       0.00000000       0.00000000       0.00000000
H        1.40307756       4.05033604      22.29121606        2       1.00000000       0.00000000       0.00000000       0.00000000       0.00000000       0.00000000       0.00000000
H        4.20923268       4.05033604      22.29121606        2       1.00000000       0.00000000       0.00000000       0.00000000       0.00000000       0.00000000       0.00000000
H        0.00000000       0.00000000      24.58243212        1       1.00000000       0.00000000       0.00000000       0.00000000       0.00000000       0.00000000       0.00000000
H        2.80615512       0.00000000      24.58243212        1       1.00000000       0.00000000       0.00000000       0.00000000       0.00000000       0.00000000       0.00000000
H        1.40307756       2.43020162      24.58243212        1       1.00000000       0.00000000       0.00000000       0.00000000       0.00000000       0.00000000       0.00000000
H        4.20923268       2.43020162      24.58243212        1       1.00000000       0.00000000       0.00000000       0.00000000       0.00000000       0.00000000       0.00000000
H       -0.00001554       1.62007756      26.81102596        0       1.00000000      -0.00016435       0.00004766       0.00017437      -0.00017939       0.00004269       0.00005872
H        4.20920073       4.05031090      26.81105658        0       1.00000000      -0.00014869       0.00014625       0.00005614      -0.00002877       0.00002754      -0.00010489
H        2.80613712       1.62016458      26.81110213        0       1.00000000      -0.00005513      -0.00002541       0.00001902       0.00030718      -0.00015856      -0.00000461
H        1.40304988       4.05032310      26.81110992        0       1.00000000      -0.00005890      -0.00009583      -0.00015625      -0.00005879       0.00017446       0.00019909
16
Lattice="5.612310241546866 0.0 0.0 0.0 4.860403243099165 0.0 0.0 0.0 44.58243212332868" Properties=species:S:1:pos:R:3:tags:I:1:masses:R:1:momenta:R:3:forces:R:3 KEmax=20.68159280932131 iter=50063 volume=1216.1236359717223 set_wall=T ns_energy=-10.497522938790883 last_walked_iter_clone=49972 energy=-10.497522992626607 stress="0.026614232739553375 2.4050686642826175e-07 -4.83262750582437e-07 2.4050686642826175e-07 0.026613203833369087 -1.0344258050074472e-06 -4.83262750582437e-07 -1.0344258050074472e-06 0.015080065584276586" pbc="T T F"
H        1.40307756       0.81006721      20.00000000        3       1.00000000       0.00000000       0.00000000       0.00000000       0.00000000       0.00000000       0.00000000
H        4.20923268       0.81006721      20.00000000        3       1.00000000       0.00000000       0.00000000       0.00000000       0.00000000       0.00000000       0.00000000
H        0.00000000       3.24026883      20.00000000        3       1.00000000       0.00000000       0.00000000       0.00000000       0.00000000       0.00000000       0.00000000
H        2.80615512       3.24026883      20.00000000        3       1.00000000       0.00000000       0.00000000       0.00000000       0.00000000       0.00000000       0.00000000
H        0.00000000       1.62013441      22.29121606        2       1.00000000       0.00000000       0.00000000       0.00000000       0.00000000       0.00000000       0.00000000
H        2.80615512       1.62013441      22.29121606        2       1.00000000       0.00000000       0.00000000       0.00000000       0.00000000       0.00000000       0.00000000
H        1.40307756       4.05033604      22.29121606        2       1.00000000       0.00000000       0.00000000       0.00000000       0.00000000       0.00000000       0.00000000
H        4.20923268       4.05033604      22.29121606        2       1.00000000       0.00000000       0.00000000       0.00000000       0.00000000       0.00000000       0.00000000
H        0.00000000       0.00000000      24.58243212        1       1.00000000       0.00000000       0.00000000       0.00000000       0.00000000       0.00000000       0.00000000
H        2.80615512       0.00000000      24.58243212        1       1.00000000       0.00000000       0.00000000       0.00000000       0.00000000       0.00000000       0.00000000
H        1.40307756       2.43020162      24.58243212        1       1.00000000       0.00000000       0.00000000       0.00000000       0.00000000       0.00000000       0.00000000
H        4.20923268       2.43020162      24.58243212        1       1.00000000       0.00000000       0.00000000       0.00000000       0.00000000       0.00000000       0.00000000
H        5.61225824       1.62019906      26.81107714        0       1.00000000       0.00000644       0.00016154       0.00014662      -0.00017939       0.00004269       0.00005872
H        4.20926553       4.05029578      26.81108257        0       1.00000000       0.00003980      -0.00000924       0.00005391      -0.00002877       0.00002754      -0.00010489
H        2.80610848       1.62022215      26.81104197        0       1.00000000      -0.00004357      -0.00011795      -0.00006587       0.00030718      -0.00015856      -0.00000461
H        1.40299573       4.05041448      26.81107346        0       1.00000000       0.00007009      -0.00006941       0.00005855      -0.00005879       0.00017446       0.00019909
16
Lattice="5.612310241546866 0.0 0.0 0.0 4.860403243099165 0.0 0.0 0.0 44.58243212332868" Properties=species:S:1:pos:R:3:tags:I:1:masses:R:1:momenta:R:3:forces:R:3 KEmax=20.68159280932131 iter=50063 volume=1216.1236359717223 set_wall=T ns_energy=-10.497522939156346 last_walked_iter_clone=50032 energy=-10.497522992626607 stress="0.026614232739553375 2.4050686642826175e-07 -4.83262750582437e-07 2.4050686642826175e-07 0.026613203833369087 -1.0344258050074472e-06 -4.83262750582437e-07 -1.0344258050074472e-06 0.015080065584276586" pbc="T T F"
H        1.40307756       0.81006721      20.00000000        3       1.00000000       0.00000000       0.00000000       0.00000000       0.00000000       0.00000000       0.00000000
H        4.20923268       0.81006721      20.00000000        3       1.00000000       0.00000000       0.00000000       0.00000000       0.00000000       0.00000000       0.00000000
H        0.00000000       3.24026883      20.00000000        3       1.00000000       0.00000000       0.00000000       0.00000000       0.00000000       0.00000000       0.00000000
H        2.80615512       3.24026883      20.00000000        3       1.00000000       0.00000000       0.00000000       0.00000000       0.00000000       0.00000000       0.00000000
H        0.00000000       1.62013441      22.29121606        2       1.00000000       0.00000000       0.00000000       0.00000000       0.00000000       0.00000000       0.00000000
H        2.80615512       1.62013441      22.29121606        2       1.00000000       0.00000000       0.00000000       0.00000000       0.00000000       0.00000000       0.00000000
H        1.40307756       4.05033604      22.29121606        2       1.00000000       0.00000000       0.00000000       0.00000000       0.00000000       0.00000000       0.00000000
H        4.20923268       4.05033604      22.29121606        2       1.00000000       0.00000000       0.00000000       0.00000000       0.00000000       0.00000000       0.00000000
H        0.00000000       0.00000000      24.58243212        1       1.00000000       0.00000000       0.00000000       0.00000000       0.00000000       0.00000000       0.00000000
H        2.80615512       0.00000000      24.58243212        1       1.00000000       0.00000000       0.00000000       0.00000000       0.00000000       0.00000000       0.00000000
H        1.40307756       2.43020162      24.58243212        1       1.00000000       0.00000000       0.00000000       0.00000000       0.00000000       0.00000000       0.00000000
H        4.20923268       2.43020162      24.58243212        1       1.00000000       0.00000000       0.00000000       0.00000000       0.00000000       0.00000000       0.00000000
H       -0.00002150       1.62016812      26.81107801        0       1.00000000      -0.00010415      -0.00013257       0.00003463      -0.00017939       0.00004269       0.00005872
H        4.20921135       4.05033609      26.81103033        0       1.00000000      -0.00000641      -0.00012950       0.00001901      -0.00002877       0.00002754      -0.00010489
H        2.80619607       1.62013348      26.81111052        0       1.00000000      -0.00004812       0.00000687       0.00017602       0.00030718      -0.00015856      -0.00000461
H        1.40310720       4.05034066      26.81115998        0       1.00000000       0.00015512       0.00009943      -0.00009552      -0.00005879       0.00017446       0.00019909
16
Lattice="5.612310241546866 0.0 0.0 0.0 4.860403243099165 0.0 0.0 0.0 44.58243212332868" Properties=species:S:1:pos:R:3:tags:I:1:masses:R:1:momenta:R:3:forces:R:3 KEmax=20.68159280932131 iter=50063 volume=1216.1236359717223 set_wall=T ns_energy=-10.497522941116342 last_walked_iter_clone=49726 energy=-10.497522992626607 stress="0.026614232739553375 2.4050686642826175e-07 -4.83262750582437e-07 2.4050686642826175e-07 0.026613203833369087 -1.0344258050074472e-06 -4.83262750582437e-07 -1.0344258050074472e-06 0.015080065584276586" pbc="T T F"
H        1.40307756       0.81006721      20.00000000        3       1.00000000       0.00000000       0.00000000       0.00000000       0.00000000       0.00000000       0.00000000
H        4.20923268       0.81006721      20.00000000        3       1.00000000       0.00000000       0.00000000       0.00000000       0.00000000       0.00000000       0.00000000
H        0.00000000       3.24026883      20.00000000        3       1.00000000       0.00000000       0.00000000       0.00000000       0.00000000       0.00000000       0.00000000
H        2.80615512       3.24026883      20.00000000        3       1.00000000       0.00000000       0.00000000       0.00000000       0.00000000       0.00000000       0.00000000
H        0.00000000       1.62013441      22.29121606        2       1.00000000       0.00000000       0.00000000       0.00000000       0.00000000       0.00000000       0.00000000
H        2.80615512       1.62013441      22.29121606        2       1.00000000       0.00000000       0.00000000       0.00000000       0.00000000       0.00000000       0.00000000
H        1.40307756       4.05033604      22.29121606        2       1.00000000       0.00000000       0.00000000       0.00000000       0.00000000       0.00000000       0.00000000
H        4.20923268       4.05033604      22.29121606        2       1.00000000       0.00000000       0.00000000       0.00000000       0.00000000       0.00000000       0.00000000
H        0.00000000       0.00000000      24.58243212        1       1.00000000       0.00000000       0.00000000       0.00000000       0.00000000       0.00000000       0.00000000