20
Lattice="5.612310241546866 0.0 0.0 0.0 4.860403243099165 0.0 0.0 0.0 24.582432123328676" Properties=species:S:1:pos:R:3:tags:I:1:masses:R:1:momenta:R:3:forces:R:3 KEmax=25.851991011651638 iter=84992 volume=670.5618179858607 ns_energy=-13.620080611692545 last_walked_iter_clone=84678 energy=-13.620080612232783 stress="0.025725757924494864 -9.4266797803035e-08 -2.9242647190921546e-08 -9.4266797803035e-08 0.02572590431944085 1.1675194345755397e-07 -2.9242647190921546e-08 1.1675194345755397e-07 0.013287124253775633" pbc="T T F"
H        1.40307756       0.81006721      10.00000000        3       1.00000000       0.00000000       0.00000000       0.00000000       0.00000000       0.00000000       0.00000000
H        4.20923268       0.81006721      10.00000000        3       1.00000000       0.00000000       0.00000000       0.00000000       0.00000000       0.00000000       0.00000000
H        0.00000000       3.24026883      10.00000000        3       1.00000000       0.00000000       0.00000000       0.00000000       0.00000000       0.00000000       0.00000000
H        2.80615512       3.24026883      10.00000000        3       1.00000000       0.00000000       0.00000000       0.00000000       0.00000000       0.00000000       0.00000000
H        0.00000000       1.62013441      12.29121606        2       1.00000000       0.00000000       0.00000000       0.00000000       0.00000000       0.00000000       0.00000000
H        2.80615512       1.62013441      12.29121606        2       1.00000000       0.00000000       0.00000000       0.00000000       0.00000000       0.00000000       0.00000000
H        1.40307756       4.05033604      12.29121606        2       1.00000000       0.00000000       0.00000000       0.00000000       0.00000000       0.00000000       0.00000000
H        4.20923268       4.05033604      12.29121606        2       1.00000000       0.00000000       0.00000000       0.00000000       0.00000000       0.00000000       0.00000000
H        0.00000000       0.00000000      14.58243212        1       1.00000000       0.00000000       0.00000000       0.00000000       0.00000000       0.00000000       0.00000000
H        2.80615512       0.00000000      14.58243212        1       1.00000000       0.00000000       0.00000000       0.00000000       0.00000000       0.00000000       0.00000000
H        1.40307756       2.43020162      14.58243212        1       1.00000000       0.00000000       0.00000000       0.00000000       0.00000000       0.00000000       0.00000000
H        4.20923268       2.43020162      14.58243212        1       1.00000000       0.00000000       0.00000000       0.00000000       0.00000000       0.00000000       0.00000000
H        1.40307472       4.05033144      16.81106137        0       1.00000000       0.00000305      -0.00000243       0.00000322       0.00002747      -0.00003728      -0.00000320
H        0.00000249       4.86040420       7.77172569        0       1.00000000      -0.00000576      -0.00002318      -0.00000493      -0.00005089       0.00001001       0.00001929
H        5.61230603       1.62013691      16.81106883        0       1.00000000      -0.00000987      -0.00001240       0.00000449       0.00000476      -0.00000868      -0.00000843
H        4.20923139       2.43019939       7.77172780        0       1.00000000      -0.00001781       0.00001254      -0.00000478      -0.00000044      -0.00001363       0.00000161
H        2.80615715       1.62012940      16.81106658        0       1.00000000       0.00002050      -0.00000876       0.00000147      -0.00002589       0.00002813      -0.00000148
H        2.80614816       4.86039766       7.77173307        0       1.00000000      -0.00000226      -0.00000573      -0.00000394       0.00001727      -0.00000744      -0.00000402
H        4.20923094       4.05033083      16.81106167        0       1.00000000      -0.00000266      -0.00000097      -0.00001272      -0.00001520       0.00000326       0.00000364
H        1.40308033       2.43019981       7.77172722        0       1.00000000      -0.00000451       0.00001560      -0.00001249       0.00002198       0.00000939      -0.00000848
20
Lattice="5.612310241546866 0.0 0.0 0.0 4.860403243099165 0.0 0.0 0.0 24.582432123328676" Properties=species:S:1:pos:R:3:tags:I:1:masses:R:1:momenta:R:3:forces:R:3 KEmax=25.851991011651638 iter=84992 volume=670.5618179858607 ns_energy=-13.620080611667245 last_walked_iter_clone=84819 energy=-13.620080612232783 stress="0.025725757924494864 -9.4266797803035e-08 -2.9242647190921546e-08 -9.4266797803035e-08 0.02572590431944085 1.1675194345755397e-07 -2.9242647190921546e-08 1.1675194345755397e-07 0.013287124253775633" pbc="T T F"
H        1.40307756       0.81006721      10.00000000        3       1.00000000       0.00000000       0.00000000       0.00000000       0.00000000       0.00000000       0.00000000
H        4.20923268       0.81006721      10.00000000        3       1.00000000       0.00000000       0.00000000       0.00000000       0.00000000       0.00000000       0.00000000
H        0.00000000       3.24026883      10.00000000        3       1.00000000       0.00000000       0.00000000       0.00000000       0.00000000       0.00000000       0.00000000
H        2.80615512       3.24026883      10.00000000        3       1.00000000       0.00000000       0.00000000       0.00000000       0.00000000       0.00000000       0.00000000
H        0.00000000       1.62013441      12.29121606        2       1.00000000       0.00000000       0.00000000       0.00000000       0.00000000       0.00000000       0.00000000
H        2.80615512       1.62013441      12.29121606        2       1.00000000       0.00000000       0.00000000       0.00000000       0.00000000       0.00000000       0.00000000
H        1.40307756       4.05033604      12.29121606        2       1.00000000       0.00000000       0.00000000       0.00000000       0.00000000       0.00000000       0.00000000
H        4.20923268       4.05033604      12.29121606        2       1.00000000       0.00000000       0.00000000       0.00000000       0.00000000       0.00000000       0.00000000
H        0.00000000       0.00000000      14.58243212        1       1.00000000       0.00000000       0.00000000       0.00000000       0.00000000       0.00000000       0.00000000
H        2.80615512       0.00000000      14.58243212        1       1.00000000       0.00000000       0.00000000       0.00000000       0.00000000       0.00000000       0.00000000
H        1.40307756       2.43020162      14.58243212        1       1.00000000       0.00000000       0.00000000       0.00000000       0.00000000       0.00000000       0.00000000
H        4.20923268       2.43020162      14.58243212        1       1.00000000       0.00000000       0.00000000       0.00000000       0.00000000       0.00000000       0.00000000
H        1.40307290       4.05034280      16.81106789        0       1.00000000      -0.00000668       0.00000588      -0.00000931       0.00002747      -0.00003728      -0.00000320
H        5.61229842       4.86039708       7.77172220        0       1.00000000      -0.00001698      -0.00001150       0.00000221      -0.00005089       0.00001001       0.00001929
H       -0.00000887       1.62013899      16.81106761        0       1.00000000      -0.00000795       0.00000155       0.00000980       0.00000476      -0.00000868      -0.00000843
H        4.20922700       2.43020423       7.77172649        0       1.00000000       0.00001581       0.00000769       0.00000774      -0.00000044      -0.00001363       0.00000161
H        2.80615121       1.62014088      16.81106333        0       1.00000000      -0.00000099       0.00001385      -0.00000741      -0.00002589       0.00002813      -0.00000148
H        2.80614282      -0.00001253       7.77172758        0       1.00000000       0.00000824      -0.00000657      -0.00000768       0.00001727      -0.00000744      -0.00000402
H        4.20923164       4.05033547      16.81105795        0       1.00000000      -0.00000632      -0.00001317      -0.00000896      -0.00001520       0.00000326       0.00000364
H        1.40307612       2.43019365       7.77172413        0       1.00000000       0.00000056       0.00000425       0.00000787       0.00002198       0.00000939      -0.00000848
20
Lattice="5.612310241546866 0.0 0.0 0.0 4.860403243099165 0.0 0.0 0.0 24.582432123328676" Properties=species:S:1:pos:R:3:tags:I:1:masses:R:1:momenta:R:3:forces:R:3 KEmax=25.851991011651638 iter=84992 volume=670.5618179858607 ns_energy=-13.620080611672675 last_walked_iter_clone=84979 energy=-13.620080612232783 stress="0.025725757924494864 -9.4266797803035e-08 -2.9242647190921546e-08 -9.4266797803035e-08 0.02572590431944085 1.1675194345755397e-07 -2.9242647190921546e-08 1.1675194345755397e-07 0.013287124253775633" pbc="T T F"
H        1.40307756       0.81006721      10.00000000        3       1.00000000       0.00000000       0.00000000       0.00000000       0.00000000       0.00000000       0.00000000
H        4.20923268       0.81006721      10.00000000        3       1.00000000       0.00000000       0.00000000       0.00000000       0.00000000       0.00000000       0.00000000
H        0.00000000       3.24026883      10.00000000        3       1.00000000       0.00000000       0.00000000       0.00000000       0.00000000       0.00000000       0.00000000
H        2.80615512       3.24026883      10.00000000        3       1.00000000       0.00000000       0.00000000       0.00000000       0.00000000       0.00000000       0.00000000
H        0.00000000       1.62013441      12.29121606        2       1.00000000       0.00000000       0.00000000       0.00000000       0.00000000       0.00000000       0.00000000
H        2.80615512       1.62013441      12.29121606        2       1.00000000       0.00000000       0.00000000       0.00000000       0.00000000       0.00000000       0.00000000
H        1.40307756       4.05033604      12.29121606        2       1.00000000       0.00000000       0.00000000       0.00000000       0.00000000       0.00000000       0.00000000
H        4.20923268       4.05033604      12.29121606        2       1.00000000       0.00000000       0.00000000       0.00000000       0.00000000       0.00000000       0.00000000
H        0.00000000       0.00000000      14.58243212        1       1.00000000       0.00000000       0.00000000       0.00000000       0.00000000       0.00000000       0.00000000
H        2.80615512       0.00000000      14.58243212        1       1.00000000       0.00000000       0.00000000       0.00000000       0.00000000       0.00000000       0.00000000
H        1.40307756       2.43020162      14.58243212        1       1.00000000       0.00000000       0.00000000       0.00000000       0.00000000       0.00000000       0.00000000
H        4.20923268       2.43020162      14.58243212        1       1.00000000       0.00000000       0.00000000       0.00000000       0.00000000       0.00000000       0.00000000
H        1.40307501       4.05032545      16.81106155        0       1.00000000       0.00000848      -0.00000738       0.00001638       0.00002747      -0.00003728      -0.00000320
H        5.61231498       0.00000858       7.77173394        0       1.00000000      -0.00000282      -0.00000502      -0.00001211      -0.00005089       0.00001001       0.00001929
H        5.61231281       1.62012468      16.81105818        0       1.00000000      -0.00001063       0.00000938       0.00000423       0.00000476      -0.00000868      -0.00000843
H        4.20923945       2.43020994       7.77173832        0       1.00000000      -0.00000331      -0.00000186       0.00000188      -0.00000044      -0.00001363       0.00000161
H        2.80615771       1.62012876      16.81107241        0       1.00000000      -0.00000030       0.00001019      -0.00000450      -0.00002589       0.00002813      -0.00000148
H        2.80614998       0.00001486       7.77172676        0       1.00000000       0.00000902       0.00000130       0.00000743       0.00001727      -0.00000744      -0.00000402
H        4.20923087       4.05032378      16.81106717        0       1.00000000       0.00000396       0.00000296      -0.00000507      -0.00001520       0.00000326       0.00000364
H        1.40307804       2.43021166       7.77171346        0       1.00000000      -0.00000110      -0.00000208       0.00000005       0.00002198       0.00000939      -0.00000848
20
Lattice="5.612310241546866 0.0 0.0 0.0 4.860403243099165 0.0 0.0 0.0 24.582432123328676" Properties=species:S:1:pos:R:3:tags:I:1:masses:R:1:momenta:R:3:forces:R:3 KEmax=25.851991011651638 iter=84992 volume=670.5618179858607 ns_energy=-13.62008061165927 last_walked_iter_clone=84891 energy=-13.620080612232783 stress="0.025725757924494864 -9.4266797803035e-08 -2.9242647190921546e-08 -9.4266797803035e-08 0.02572590431944085 1.1675194345755397e-07 -2.9242647190921546e-08 1.1675194345755397e-07 0.013287124253775633" pbc="T T F"
H        1.40307756       0.81006721      10.00000000        3       1.00000000       0.00000000       0.00000000       0.00000000       0.00000000       0.00000000       0.00000000
H        4.20923268       0.81006721      10.00000000        3       1.00000000       0.00000000       0.00000000       0.00000000       0.00000000       0.00000000       0.00000000
H        0.00000000       3.24026883      10.00000000        3       1.00000000       0.00000000       0.00000000       0.00000000       0.00000000       0.00000000       0.00000000
H        2.80615512       3.24026883      10.00000000        3       1.00000000       0.00000000       0.00000000       0.00000000       0.00000000       0.00000000       0.00000000
H        0.00000000       1.62013441      12.29121606        2       1.00000000       0.00000000       0.00000000       0.00000000       0.00000000       0.00000000       0.00000000
H        2.80615512       1.62013441      12.29121606        2       1.00000000       0.00000000       0.00000000       0.00000000       0.00000000       0.00000000       0.00000000
H        1.40307756       4.05033604      12.29121606        2       1.00000000       0.00000000       0.00000000       0.00000000       0.00000000       0.00000000       0.00000000
H        4.20923268       4.05033604      12.29121606        2       1.00000000       0.00000000       0.00000000       0.00000000       0.00000000       0.00000000       0.00000000
H        0.00000000       0.00000000      14.58243212        1       1.00000000       0.00000000       0.00000000       0.00000000       0.00000000       0.00000000       0.00000000
H        2.80615512       0.00000000      14.58243212        1       1.00000000       0.00000000       0.00000000       0.00000000       0.00000000       0.00000000       0.00000000
H        1.40307756       2.43020162      14.58243212        1       1.00000000       0.00000000       0.00000000       0.00000000       0.00000000       0.00000000       0.00000000
H        4.20923268       2.43020162      14.58243212        1       1.00000000       0.00000000       0.00000000       0.00000000       0.00000000       0.00000000       0.00000000
H        1.40307212       4.05034055      16.81106099        0       1.00000000       0.00000813      -0.00001475      -0.00000545       0.00002747      -0.00003728      -0.00000320
H        0.00000081      -0.00000275       7.77173145        0       1.00000000       0.00000461       0.00000247      -0.00000591      -0.00005089       0.00001001       0.00001929
H        5.61230453       1.62013927      16.81106765        0       1.00000000      -0.00000113       0.00001542       0.00000242       0.00000476      -0.00000868      -0.00000843
H        4.20923447       2.43021485       7.77171628        0       1.00000000       0.00000441      -0.00002049      -0.00000752      -0.00000044      -0.00001363       0.00000161
H        2.80614704       1.62013816      16.81106179        0       1.00000000       0.00000283      -0.00000278       0.00001422      -0.00002589       0.00002813      -0.00000148
H        2.80615205       0.00000174       7.77172611        0       1.00000000      -0.00001068      -0.00000475       0.00000162       0.00001727      -0.00000744      -0.00000402
H        4.20923018       4.05034073      16.81105866        0       1.00000000      -0.00000613      -0.00000807      -0.00001016      -0.00001520       0.00000326       0.00000364
H        1.40308362       2.43020212       7.77172282        0       1.00000000       0.00001411      -0.00000293      -0.00000712       0.00002198       0.00000939      -0.00000848
20
Lattice="5.612310241546866 0.0 0.0 0.0 4.860403243099165 0.0 0.0 0.0 24.582432123328676" Properties=species:S:1:pos:R:3:tags:I:1:masses:R:1:momenta:R:3:forces:R:3 KEmax=25.851991011651638 iter=84992 volume=670.5618179858607 ns_energy=-13.620080611697398 last_walked_iter_clone=84951 energy=-13.620080612232783 stress="0.025725757924494864 -9.4266797803035e-08 -2.9242647190921546e-08 -9.4266797803035e-08 0.02572590431944085 1.1675194345755397e-07 -2.9242647190921546e-08 1.1675194345755397e-07 0.013287124253775633" pbc="T T F"
H        1.40307756       0.81006721      10.00000000        3       1.00000000       0.00000000       0.00000000       0.00000000       0.00000000       0.00000000       0.00000000
H        4.20923268       0.81006721      10.00000000        3       1.00000000       0.00000000       0.00000000       0.00000000       0.00000000       0.00000000       0.00000000
H        0.00000000       3.24026883      10.00000000        3       1.00000000       0.00000000       0.00000000       0.00000000       0.00000000       0.00000000       0.00000000
H        2.80615512       3.24026883      10.00000000        3       1.00000000       0.00000000       0.00000000       0.00000000       0.00000000       0.00000000       0.00000000
H        0.00000000       1.62013441      12.29121606        2       1.00000000       0.00000000       0.00000000       0.00000000       0.00000000       0.00000000       0.00000000
H        2.80615512       1.62013441      12.29121606        2       1.00000000       0.00000000       0.00000000       0.00000000       0.00000000       0.00000000       0.00000000
H        1.40307756       4.05033604      12.29121606        2       1.00000000       0.00000000       0.00000000       0.00000000       0.00000000       0.00000000       0.00000000
H        4.20923268       4.05033604      12.29121606        2       1.00000000       0.00000000       0.00000000       0.00000000       0.00000000       0.00000000       0.00000000
H        0.00000000       0.00000000      14.58243212        1       1.00000000       0.00000000       0.00000000       0.00000000       0.00000000       0.00000000       0.00000000
H        2.80615512       0.00000000      14.58243212        1       1.00000000       0.00000000       0.00000000       0.00000000       0.00000000       0.00000000       0.00000000
H        1.40307756       2.43020162      14.58243212        1       1.00000000       0.00000000       0.00000000       0.00000000       0.00000000       0.00000000       0.00000000
H        4.20923268       2.43020162      14.58243212        1       1.00000000       0.00000000       0.00000000       0.00000000       0.00000000       0.00000000       0.00000000
H        1.40307584       4.05033435      16.81106416        0       1.00000000       0.00000081       0.00001051      -0.00000614       0.00002747      -0.00003728      -0.00000320
H        5.61230265       4.86039881       7.77172197        0       1.00000000       0.00001168       0.00000155       0.00000547      -0.00005089       0.00001001       0.00001929
H        5.61231480       1.62013849      16.81107274        0       1.00000000       0.00000043      -0.00000234       0.00000846       0.00000476      -0.00000868      -0.00000843
H        4.20922560       2.43019405       7.77171991        0       1.00000000      -0.00000733       0.00000065       0.00000443      -0.00000044      -0.00001363       0.00000161
H        2.80614982       1.62013310      16.81105570        0       1.00000000       0.00001232      -0.00000639      -0.00001042      -0.00002589       0.00002813      -0.00000148
H        2.80614657       4.86038966       7.77173273        0       1.00000000      -0.00000531      -0.00000539       0.00000445       0.00001727      -0.00000744      -0.00000402
H        4.20923901       4.05033335      16.81106196        0       1.00000000       0.00001065      -0.00001031      -0.00000619      -0.00001520       0.00000326       0.00000364
H        1.40307203       2.43019150       7.77173042        0       1.00000000       0.00001549       0.00001383      -0.00001179       0.00002198       0.00000939      -0.00000848
20
Lattice="5.612310241546866 0.0 0.0 0.0 4.860403243099165 0.0 0.0 0.0 24.582432123328676" Properties=species:S:1:pos:R:3:tags:I:1:masses:R:1:momenta:R:3:forces:R:3 KEmax=25.851991011651638 iter=84992 volume=670.5618179858607 ns_energy=-13.620080611683528 last_walked_iter_clone=84952 energy=-13.620080612232783 stress="0.025725757924494864 -9.4266797803035e-08 -2.9242647190921546e-08 -9.4266797803035e-08 0.02572590431944085 1.1675194345755397e-07 -2.9242647190921546e-08 1.1675194345755397e-07 0.013287124253775633" pbc="T T F"
H        1.40307756       0.81006721      10.00000000        3       1.00000000       0.00000000       0.00000000       0.00000000       0.00000000       0.00000000       0.00000000
H        4.20923268       0.81006721      10.00000000        3       1.00000000       0.00000000       0.00000000       0.00000000       0.00000000       0.00000000       0.00000000
H        0.00000000       3.24026883      10.00000000        3       1.00000000       0.00000000       0.00000000       0.00000000       0.00000000       0.00000000       0.00000000
H        2.80615512       3.24026883      10.00000000        3       1.00000000       0.00000000       0.00000000       0.00000000       0.00000000       0.00000000       0.00000000
H        0.00000000       1.62013441      12.29121606        2       1.00000000       0.00000000       0.00000000       0.00000000       0.00000000       0.00000000       0.00000000
H        2.80615512       1.62013441      12.29121606        2       1.00000000       0.00000000       0.00000000       0.00000000       0.00000000       0.00000000       0.00000000
H        1.40307756       4.05033604      12.29121606        2       1.00000000       0.00000000       0.00000000       0.00000000       0.00000000       0.00000000       0.00000000
H        4.20923268       4.05033604      12.29121606        2       1.00000000       0.00000000       0.00000000       0.00000000       0.00000000       0.00000000       0.00000000
H        0.00000000       0.00000000      14.58243212        1       1.00000000       0.00000000       0.00000000       0.00000000       0.00000000       0.00000000       0.00000000
H        2.80615512       0.00000000      14.58243212        1       1.00000000       0.00000000       0.00000000       0.00000000       0.00000000       0.00000000       0.00000000
H        1.40307756       2.43020162      14.58243212        1       1.00000000       0.00000000       0.00000000       0.00000000       0.00000000       0.00000000       0.00000000
H        4.20923268       2.43020162      14.58243212        1       1.00000000       0.00000000       0.00000000       0.00000000       0.00000000       0.00000000       0.00000000
H        1.40307317       4.05033277      16.81106022        0       1.00000000       0.00000067      -0.00000466       0.00000453       0.00002747      -0.00003728      -0.00000320
H        5.61232137       0.00000523       7.77171617        0       1.00000000      -0.00000800       0.00001086       0.00000331      -0.00005089       0.00001001       0.00001929
H        5.61230837       1.62013849      16.81106149        0       1.00000000      -0.00000267      -0.00000908      -0.00001902       0.00000476      -0.00000868      -0.00000843
H        4.20922632       2.43020066       7.77173088        0       1.00000000      -0.00000043      -0.00000667      -0.00000320      -0.00000044      -0.00001363       0.00000161
H        2.80614739       1.62012654      16.81106466        0       1.00000000       0.00001203       0.00001241       0.00000605      -0.00002589       0.00002813      -0.00000148
H        2.80615800      -0.00000587       7.77172619        0       1.00000000      -0.00000054      -0.00000629       0.00000472       0.00001727      -0.00000744      -0.00000402
H        4.20922673       4.05033335      16.81106484        0       1.00000000       0.00001227       0.00001351       0.00000197      -0.00001520       0.00000326       0.00000364
H        1.40307576       2.43020503       7.77172939        0       1.00000000       0.00000734      -0.00000802       0.00001474       0.00002198       0.00000939      -0.00000848
20
Lattice="5.612310241546866 0.0 0.0 0.0 4.860403243099165 0.0 0.0 0.0 24.582432123328676" Properties=species:S:1:pos:R:3:tags:I:1:masses:R:1:momenta:R:3:forces:R:3 KEmax=25.851991011651638 iter=84992 volume=670.5618179858607 ns_energy=-13.62008061165858 last_walked_iter_clone=84897 energy=-13.620080612232783 stress="0.025725757924494864 -9.4266797803035e-08 -2.9242647190921546e-08 -9.4266797803035e-08 0.02572590431944085 1.1675194345755397e-07 -2.9242647190921546e-08 1.1675194345755397e-07 0.013287124253775633" pbc="T T F"
H        1.40307756       0.81006721      10.00000000        3       1.00000000       0.00000000       0.00000000       0.00000000       0.00000000       0.00000000       0.00000000
H        4.20923268       0.81006721      10.00000000        3       1.00000000       0.00000000       0.00000000       0.00000000       0.00000000       0.00000000       0.00000000
H        0.00000000       3.24026883      10.00000000        3       1.00000000       0.00000000       0.00000000       0.00000000       0.00000000       0.00000000       0.00000000
H        2.80615512       3.24026883      10.00000000        3       1.00000000       0.00000000       0.00000000       0.00000000       0.00000000       0.00000000       0.00000000
H        0.00000000       1.62013441      12.29121606        2       1.00000000       0.00000000       0.00000000       0.00000000       0.00000000       0.00000000       0.00000000
H        2.80615512       1.62013441      12.29121606        2       1.00000000       0.00000000       0.00000000       0.00000000       0.00000000       0.00000000       0.00000000
H        1.40307756       4.05033604      12.29121606        2       1.00000000       0.00000000       0.00000000       0.00000000       0.00000000       0.00000000       0.00000000
H        4.20923268       4.05033604      12.29121606        2       1.00000000       0.00000000       0.00000000       0.00000000       0.00000000       0.00000000       0.00000000
H        0.00000000       0.00000000      14.58243212        1       1.00000000       0.00000000       0.00000000       0.00000000       0.00000000       0.00000000       0.00000000
H        2.80615512       0.00000000      14.58243212        1       1.00000000       0.00000000       0.00000000       0.00000000       0.00000000       0.00000000       0.00000000
H        1.40307756       2.43020162      14.58243212        1       1.00000000       0.00000000       0.00000000       0.00000000       0.00000000       0.00000000       0.00000000
H        4.20923268       2.43020162      14.58243212        1       1.00000000       0.00000000       0.00000000       0.00000000       0.00000000       0.00000000       0.00000000
H        1.40306583       4.05032892      16.81106482        0       1.00000000      -0.00000426      -0.00000446       0.00000911       0.00002747      -0.00003728      -0.00000320
H       -0.00000502       4.86039700       7.77172213        0       1.00000000      -0.00000550       0.00000742       0.00002365      -0.00005089       0.00001001       0.00001929
H       -0.00000363       1.62012536      16.81106429        0       1.00000000      -0.00001194       0.00000387       0.00000050       0.00000476      -0.00000868      -0.00000843
H        4.20923492       2.43020083       7.77172175        0       1.00000000      -0.00000236       0.00000022      -0.00000214      -0.00000044      -0.00001363       0.00000161
H        2.80614374       1.62013282      16.81105755        0       1.00000000      -0.00000587      -0.00001849       0.00000268      -0.00002589       0.00002813      -0.00000148
H        2.80615084       4.86039709       7.77171686        0       1.00000000      -0.00000059      -0.00000095      -0.00000161       0.00001727      -0.00000744      -0.00000402
H        4.20923162       4.05033491      16.81106332        0       1.00000000      -0.00000365       0.00001301       0.00000733      -0.00001520       0.00000326       0.00000364
H        1.40307230       2.43019692       7.77173607        0       1.00000000      -0.00000812      -0.00000318      -0.00000351       0.00002198       0.00000939      -0.00000848
20
Lattice="5.612310241546866 0.0 0.0 0.0 4.860403243099165 0.0 0.0 0.0 24.582432123328676" Properties=species:S:1:pos:R:3:tags:I:1:masses:R:1:momenta:R:3:forces:R:3 KEmax=25.851991011651638 iter=84992 volume=670.5618179858607 ns_energy=-13.620080611723889 last_walked_iter_clone=84884 energy=-13.620080612232783 stress="0.025725757924494864 -9.4266797803035e-08 -2.9242647190921546e-08 -9.4266797803035e-08 0.02572590431944085 1.1675194345755397e-07 -2.9242647190921546e-08 1.1675194345755397e-07 0.013287124253775633" pbc="T T F"
H        1.40307756       0.81006721      10.00000000        3       1.00000000       0.00000000       0.00000000       0.00000000       0.00000000       0.00000000       0.00000000