20
Lattice="5.612310241546866 0.0 0.0 0.0 4.860403243099165 0.0 0.0 0.0 24.582432123328676" Properties=species:S:1:pos:R:3:tags:I:1:masses:R:1:momenta:R:3:forces:R:3 KEmax=25.851991011651638 iter=119999 volume=670.5618179858607 ns_energy=-13.620080613390229 last_walked_iter_clone=119437 energy=-13.620080613390773 stress="0.025725802403496256 9.121458917424555e-10 -1.434443224292984e-08 9.121458917424555e-10 0.025725827385379568 -9.57588617401046e-10 -1.434443224292984e-08 -9.57588617401046e-10 0.013287014311724726" pbc="T T F"
H        1.40307756       0.81006721      10.00000000        3       1.00000000       0.00000000       0.00000000       0.00000000       0.00000000       0.00000000       0.00000000
H        4.20923268       0.81006721      10.00000000        3       1.00000000       0.00000000       0.00000000       0.00000000       0.00000000       0.00000000       0.00000000
H        0.00000000       3.24026883      10.00000000        3       1.00000000       0.00000000       0.00000000       0.00000000       0.00000000       0.00000000       0.00000000
H        2.80615512       3.24026883      10.00000000        3       1.00000000       0.00000000       0.00000000       0.00000000       0.00000000       0.00000000       0.00000000
H        0.00000000       1.62013441      12.29121606        2       1.00000000       0.00000000       0.00000000       0.00000000       0.00000000       0.00000000       0.00000000
H        2.80615512       1.62013441      12.29121606        2       1.00000000       0.00000000       0.00000000       0.00000000       0.00000000       0.00000000       0.00000000
H        1.40307756       4.05033604      12.29121606        2       1.00000000       0.00000000       0.00000000       0.00000000       0.00000000       0.00000000       0.00000000
H        4.20923268       4.05033604      12.29121606        2       1.00000000       0.00000000       0.00000000       0.00000000       0.00000000       0.00000000       0.00000000
H        0.00000000       0.00000000      14.58243212        1       1.00000000       0.00000000       0.00000000       0.00000000       0.00000000       0.00000000       0.00000000
H        2.80615512       0.00000000      14.58243212        1       1.00000000       0.00000000       0.00000000       0.00000000       0.00000000       0.00000000       0.00000000
H        1.40307756       2.43020162      14.58243212        1       1.00000000       0.00000000       0.00000000       0.00000000       0.00000000       0.00000000       0.00000000
H        4.20923268       2.43020162      14.58243212        1       1.00000000       0.00000000       0.00000000       0.00000000       0.00000000       0.00000000       0.00000000
H        1.40307748       4.05033652      16.81106464        0       1.00000000       0.00000188      -0.00000039       0.00000135      -0.00000587       0.00000070       0.00000037
H       -0.00000080       4.86040335       7.77172689        0       1.00000000      -0.00000003       0.00000069       0.00000028       0.00000076      -0.00000121       0.00000112
H        5.61231020       1.62013471      16.81106482        0       1.00000000       0.00000184      -0.00000105       0.00000077       0.00000126      -0.00000135      -0.00000053
H        4.20923211       2.43020130       7.77172702        0       1.00000000       0.00000062      -0.00000031      -0.00000085      -0.00000035       0.00000006       0.00000202
H        2.80615557       1.62013447      16.81106466        0       1.00000000      -0.00000050       0.00000029       0.00000072       0.00000028      -0.00000084       0.00000120
H        2.80615393       4.86040318       7.77172752        0       1.00000000       0.00000072       0.00000123       0.00000018      -0.00000197      -0.00000270       0.00000036
H        4.20923324       4.05033610      16.81106459        0       1.00000000       0.00000024      -0.00000097      -0.00000121       0.00000523       0.00000015      -0.00000295
H        1.40307752       2.43020195       7.77172753        0       1.00000000      -0.00000055       0.00000049      -0.00000055       0.00000088       0.00000242      -0.00000063
20
Lattice="5.612310241546866 0.0 0.0 0.0 4.860403243099165 0.0 0.0 0.0 24.582432123328676" Properties=species:S:1:pos:R:3:tags:I:1:masses:R:1:momenta:R:3:forces:R:3 KEmax=25.851991011651638 iter=119999 volume=670.5618179858607 ns_energy=-13.62008061339024 last_walked_iter_clone=119436 energy=-13.620080613390773 stress="0.025725802403496256 9.121458917424555e-10 -1.434443224292984e-08 9.121458917424555e-10 0.025725827385379568 -9.57588617401046e-10 -1.434443224292984e-08 -9.57588617401046e-10 0.013287014311724726" pbc="T T F"
H        1.40307756       0.81006721      10.00000000        3       1.00000000       0.00000000       0.00000000       0.00000000       0.00000000       0.00000000       0.00000000
H        4.20923268       0.81006721      10.00000000        3       1.00000000       0.00000000       0.00000000       0.00000000       0.00000000       0.00000000       0.00000000
H        0.00000000       3.24026883      10.00000000        3       1.00000000       0.00000000       0.00000000       0.00000000       0.00000000       0.00000000       0.00000000
H        2.80615512       3.24026883      10.00000000        3       1.00000000       0.00000000       0.00000000       0.00000000       0.00000000       0.00000000       0.00000000
H        0.00000000       1.62013441      12.29121606        2       1.00000000       0.00000000       0.00000000       0.00000000       0.00000000       0.00000000       0.00000000
H        2.80615512       1.62013441      12.29121606        2       1.00000000       0.00000000       0.00000000       0.00000000       0.00000000       0.00000000       0.00000000
H        1.40307756       4.05033604      12.29121606        2       1.00000000       0.00000000       0.00000000       0.00000000       0.00000000       0.00000000       0.00000000
H        4.20923268       4.05033604      12.29121606        2       1.00000000       0.00000000       0.00000000       0.00000000       0.00000000       0.00000000       0.00000000
H        0.00000000       0.00000000      14.58243212        1       1.00000000       0.00000000       0.00000000       0.00000000       0.00000000       0.00000000       0.00000000
H        2.80615512       0.00000000      14.58243212        1       1.00000000       0.00000000       0.00000000       0.00000000       0.00000000       0.00000000       0.00000000
H        1.40307756       2.43020162      14.58243212        1       1.00000000       0.00000000       0.00000000       0.00000000       0.00000000       0.00000000       0.00000000
H        4.20923268       2.43020162      14.58243212        1       1.00000000       0.00000000       0.00000000       0.00000000       0.00000000       0.00000000       0.00000000
H        1.40307695       4.05033640      16.81106522        0       1.00000000      -0.00000051       0.00000048       0.00000039      -0.00000587       0.00000070       0.00000037
H        0.00000065       4.86040380       7.77172610        0       1.00000000      -0.00000021      -0.00000003      -0.00000202       0.00000076      -0.00000121       0.00000112
H        5.61231028       1.62013473      16.81106499        0       1.00000000      -0.00000062      -0.00000026      -0.00000052       0.00000126      -0.00000135      -0.00000053
H        4.20923283       2.43020186       7.77172697        0       1.00000000      -0.00000017      -0.00000001       0.00000063      -0.00000035       0.00000006       0.00000202
H        2.80615564       1.62013448      16.81106535        0       1.00000000      -0.00000106      -0.00000044      -0.00000007       0.00000028      -0.00000084       0.00000120
H        2.80615522      -0.00000010       7.77172679        0       1.00000000      -0.00000079       0.00000119       0.00000029      -0.00000197      -0.00000270       0.00000036
H        4.20923235       4.05033593      16.81106511        0       1.00000000       0.00000205       0.00000036      -0.00000165       0.00000523       0.00000015      -0.00000295
H        1.40307786       2.43020144       7.77172787        0       1.00000000       0.00000058      -0.00000055       0.00000037       0.00000088       0.00000242      -0.00000063
20
Lattice="5.612310241546866 0.0 0.0 0.0 4.860403243099165 0.0 0.0 0.0 24.582432123328676" Properties=species:S:1:pos:R:3:tags:I:1:masses:R:1:momenta:R:3:forces:R:3 KEmax=25.851991011651638 iter=119999 volume=670.5618179858607 ns_energy=-13.620080613390174 last_walked_iter_clone=119333 energy=-13.620080613390773 stress="0.025725802403496256 9.121458917424555e-10 -1.434443224292984e-08 9.121458917424555e-10 0.025725827385379568 -9.57588617401046e-10 -1.434443224292984e-08 -9.57588617401046e-10 0.013287014311724726" pbc="T T F"
H        1.40307756       0.81006721      10.00000000        3       1.00000000       0.00000000       0.00000000       0.00000000       0.00000000       0.00000000       0.00000000
H        4.20923268       0.81006721      10.00000000        3       1.00000000       0.00000000       0.00000000       0.00000000       0.00000000       0.00000000       0.00000000
H        0.00000000       3.24026883      10.00000000        3       1.00000000       0.00000000       0.00000000       0.00000000       0.00000000       0.00000000       0.00000000
H        2.80615512       3.24026883      10.00000000        3       1.00000000       0.00000000       0.00000000       0.00000000       0.00000000       0.00000000       0.00000000
H        0.00000000       1.62013441      12.29121606        2       1.00000000       0.00000000       0.00000000       0.00000000       0.00000000       0.00000000       0.00000000
H        2.80615512       1.62013441      12.29121606        2       1.00000000       0.00000000       0.00000000       0.00000000       0.00000000       0.00000000       0.00000000
H        1.40307756       4.05033604      12.29121606        2       1.00000000       0.00000000       0.00000000       0.00000000       0.00000000       0.00000000       0.00000000
H        4.20923268       4.05033604      12.29121606        2       1.00000000       0.00000000       0.00000000       0.00000000       0.00000000       0.00000000       0.00000000
H        0.00000000       0.00000000      14.58243212        1       1.00000000       0.00000000       0.00000000       0.00000000       0.00000000       0.00000000       0.00000000
H        2.80615512       0.00000000      14.58243212        1       1.00000000       0.00000000       0.00000000       0.00000000       0.00000000       0.00000000       0.00000000
H        1.40307756       2.43020162      14.58243212        1       1.00000000       0.00000000       0.00000000       0.00000000       0.00000000       0.00000000       0.00000000
H        4.20923268       2.43020162      14.58243212        1       1.00000000       0.00000000       0.00000000       0.00000000       0.00000000       0.00000000       0.00000000
H        1.40307897       4.05033706      16.81106437        0       1.00000000      -0.00000056       0.00000022      -0.00000068      -0.00000587       0.00000070       0.00000037
H        5.61231027      -0.00000083       7.77172690        0       1.00000000       0.00000088      -0.00000001       0.00000178       0.00000076      -0.00000121       0.00000112
H        5.61231145       1.62013485      16.81106486        0       1.00000000       0.00000020       0.00000042       0.00000042       0.00000126      -0.00000135      -0.00000053
H        4.20923269       2.43020031       7.77172703        0       1.00000000       0.00000047      -0.00000046      -0.00000014      -0.00000035       0.00000006       0.00000202
H        2.80615599       1.62013557      16.81106536        0       1.00000000      -0.00000090      -0.00000010       0.00000011       0.00000028      -0.00000084       0.00000120
H        2.80615505      -0.00000033       7.77172721        0       1.00000000       0.00000143       0.00000059       0.00000034      -0.00000197      -0.00000270       0.00000036
H        4.20923401       4.05033682      16.81106502        0       1.00000000      -0.00000017       0.00000088       0.00000125       0.00000523       0.00000015      -0.00000295
H        1.40307704       2.43020070       7.77172740        0       1.00000000      -0.00000029       0.00000114      -0.00000093       0.00000088       0.00000242      -0.00000063
20
Lattice="5.612310241546866 0.0 0.0 0.0 4.860403243099165 0.0 0.0 0.0 24.582432123328676" Properties=species:S:1:pos:R:3:tags:I:1:masses:R:1:momenta:R:3:forces:R:3 KEmax=25.851991011651638 iter=119999 volume=670.5618179858607 ns_energy=-13.62008061339016 last_walked_iter_clone=119797 energy=-13.620080613390773 stress="0.025725802403496256 9.121458917424555e-10 -1.434443224292984e-08 9.121458917424555e-10 0.025725827385379568 -9.57588617401046e-10 -1.434443224292984e-08 -9.57588617401046e-10 0.013287014311724726" pbc="T T F"
H        1.40307756       0.81006721      10.00000000        3       1.00000000       0.00000000       0.00000000       0.00000000       0.00000000       0.00000000       0.00000000
H        4.20923268       0.81006721      10.00000000        3       1.00000000       0.00000000       0.00000000       0.00000000       0.00000000       0.00000000       0.00000000
H        0.00000000       3.24026883      10.00000000        3       1.00000000       0.00000000       0.00000000       0.00000000       0.00000000       0.00000000       0.00000000
H        2.80615512       3.24026883      10.00000000        3       1.00000000       0.00000000       0.00000000       0.00000000       0.00000000       0.00000000       0.00000000
H        0.00000000       1.62013441      12.29121606        2       1.00000000       0.00000000       0.00000000       0.00000000       0.00000000       0.00000000       0.00000000
H        2.80615512       1.62013441      12.29121606        2       1.00000000       0.00000000       0.00000000       0.00000000       0.00000000       0.00000000       0.00000000
H        1.40307756       4.05033604      12.29121606        2       1.00000000       0.00000000       0.00000000       0.00000000       0.00000000       0.00000000       0.00000000
H        4.20923268       4.05033604      12.29121606        2       1.00000000       0.00000000       0.00000000       0.00000000       0.00000000       0.00000000       0.00000000
H        0.00000000       0.00000000      14.58243212        1       1.00000000       0.00000000       0.00000000       0.00000000       0.00000000       0.00000000       0.00000000
H        2.80615512       0.00000000      14.58243212        1       1.00000000       0.00000000       0.00000000       0.00000000       0.00000000       0.00000000       0.00000000
H        1.40307756       2.43020162      14.58243212        1       1.00000000       0.00000000       0.00000000       0.00000000       0.00000000       0.00000000       0.00000000
H        4.20923268       2.43020162      14.58243212        1       1.00000000       0.00000000       0.00000000       0.00000000       0.00000000       0.00000000       0.00000000
H        1.40307785       4.05033608      16.81106451        0       1.00000000      -0.00000006       0.00000115       0.00000135      -0.00000587       0.00000070       0.00000037
H        0.00000079      -0.00000033       7.77172683        0       1.00000000      -0.00000000      -0.00000028      -0.00000056       0.00000076      -0.00000121       0.00000112
H        0.00000014       1.62013458      16.81106556        0       1.00000000      -0.00000074      -0.00000112       0.00000161       0.00000126      -0.00000135      -0.00000053
H        4.20923357       2.43020081       7.77172721        0       1.00000000       0.00000091      -0.00000083      -0.00000012      -0.00000035       0.00000006       0.00000202
H        2.80615559       1.62013483      16.81106432        0       1.00000000       0.00000028      -0.00000019      -0.00000001       0.00000028      -0.00000084       0.00000120
H        2.80615586       0.00000000       7.77172643        0       1.00000000      -0.00000059       0.00000124      -0.00000146      -0.00000197      -0.00000270       0.00000036
H        4.20923260       4.05033613      16.81106491        0       1.00000000       0.00000013      -0.00000086      -0.00000056       0.00000523       0.00000015      -0.00000295
H        1.40307865       2.43020091       7.77172729        0       1.00000000       0.00000011       0.00000135       0.00000036       0.00000088       0.00000242      -0.00000063
20
Lattice="5.612310241546866 0.0 0.0 0.0 4.860403243099165 0.0 0.0 0.0 24.582432123328676" Properties=species:S:1:pos:R:3:tags:I:1:masses:R:1:momenta:R:3:forces:R:3 KEmax=25.851991011651638 iter=119999 volume=670.5618179858607 ns_energy=-13.620080613390423 last_walked_iter_clone=119313 energy=-13.620080613390773 stress="0.025725802403496256 9.121458917424555e-10 -1.434443224292984e-08 9.121458917424555e-10 0.025725827385379568 -9.57588617401046e-10 -1.434443224292984e-08 -9.57588617401046e-10 0.013287014311724726" pbc="T T F"
H        1.40307756       0.81006721      10.00000000        3       1.00000000       0.00000000       0.00000000       0.00000000       0.00000000       0.00000000       0.00000000
H        4.20923268       0.81006721      10.00000000        3       1.00000000       0.00000000       0.00000000       0.00000000       0.00000000       0.00000000       0.00000000
H        0.00000000       3.24026883      10.00000000        3       1.00000000       0.00000000       0.00000000       0.00000000       0.00000000       0.00000000       0.00000000
H        2.80615512       3.24026883      10.00000000        3       1.00000000       0.00000000       0.00000000       0.00000000       0.00000000       0.00000000       0.00000000
H        0.00000000       1.62013441      12.29121606        2       1.00000000       0.00000000       0.00000000       0.00000000       0.00000000       0.00000000       0.00000000
H        2.80615512       1.62013441      12.29121606        2       1.00000000       0.00000000       0.00000000       0.00000000       0.00000000       0.00000000       0.00000000
H        1.40307756       4.05033604      12.29121606        2       1.00000000       0.00000000       0.00000000       0.00000000       0.00000000       0.00000000       0.00000000
H        4.20923268       4.05033604      12.29121606        2       1.00000000       0.00000000       0.00000000       0.00000000       0.00000000       0.00000000       0.00000000
H        0.00000000       0.00000000      14.58243212        1       1.00000000       0.00000000       0.00000000       0.00000000       0.00000000       0.00000000       0.00000000
H        2.80615512       0.00000000      14.58243212        1       1.00000000       0.00000000       0.00000000       0.00000000       0.00000000       0.00000000       0.00000000
H        1.40307756       2.43020162      14.58243212        1       1.00000000       0.00000000       0.00000000       0.00000000       0.00000000       0.00000000       0.00000000
H        4.20923268       2.43020162      14.58243212        1       1.00000000       0.00000000       0.00000000       0.00000000       0.00000000       0.00000000       0.00000000
H        1.40307730       4.05033613      16.81106535        0       1.00000000       0.00000123       0.00000142       0.00000040      -0.00000587       0.00000070       0.00000037
H        5.61231111      -0.00000022       7.77172696        0       1.00000000      -0.00000148      -0.00000050      -0.00000011       0.00000076      -0.00000121       0.00000112
H       -0.00000056       1.62013429      16.81106513        0       1.00000000      -0.00000077       0.00000097       0.00000179       0.00000126      -0.00000135      -0.00000053
H        4.20923340       2.43020140       7.77172743        0       1.00000000      -0.00000019       0.00000006       0.00000053      -0.00000035       0.00000006       0.00000202
H        2.80615458       1.62013421      16.81106537        0       1.00000000       0.00000114       0.00000118      -0.00000099       0.00000028      -0.00000084       0.00000120
H        2.80615554      -0.00000088       7.77172689        0       1.00000000      -0.00000119       0.00000098      -0.00000004      -0.00000197      -0.00000270       0.00000036
H        4.20923283       4.05033615      16.81106535        0       1.00000000       0.00000044      -0.00000016       0.00000082       0.00000523       0.00000015      -0.00000295
H        1.40307885       2.43020106       7.77172736        0       1.00000000      -0.00000022       0.00000036       0.00000009       0.00000088       0.00000242      -0.00000063
20
Lattice="5.612310241546866 0.0 0.0 0.0 4.860403243099165 0.0 0.0 0.0 24.582432123328676" Properties=species:S:1:pos:R:3:tags:I:1:masses:R:1:momenta:R:3:forces:R:3 KEmax=25.851991011651638 iter=119999 volume=670.5618179858607 ns_energy=-13.620080613390614 last_walked_iter_clone=119744 energy=-13.620080613390773 stress="0.025725802403496256 9.121458917424555e-10 -1.434443224292984e-08 9.121458917424555e-10 0.025725827385379568 -9.57588617401046e-10 -1.434443224292984e-08 -9.57588617401046e-10 0.013287014311724726" pbc="T T F"
H        1.40307756       0.81006721      10.00000000        3       1.00000000       0.00000000       0.00000000       0.00000000       0.00000000       0.00000000       0.00000000
H        4.20923268       0.81006721      10.00000000        3       1.00000000       0.00000000       0.00000000       0.00000000       0.00000000       0.00000000       0.00000000
H        0.00000000       3.24026883      10.00000000        3       1.00000000       0.00000000       0.00000000       0.00000000       0.00000000       0.00000000       0.00000000
H        2.80615512       3.24026883      10.00000000        3       1.00000000       0.00000000       0.00000000       0.00000000       0.00000000       0.00000000       0.00000000
H        0.00000000       1.62013441      12.29121606        2       1.00000000       0.00000000       0.00000000       0.00000000       0.00000000       0.00000000       0.00000000
H        2.80615512       1.62013441      12.29121606        2       1.00000000       0.00000000       0.00000000       0.00000000       0.00000000       0.00000000       0.00000000
H        1.40307756       4.05033604      12.29121606        2       1.00000000       0.00000000       0.00000000       0.00000000       0.00000000       0.00000000       0.00000000
H        4.20923268       4.05033604      12.29121606        2       1.00000000       0.00000000       0.00000000       0.00000000       0.00000000       0.00000000       0.00000000
H        0.00000000       0.00000000      14.58243212        1       1.00000000       0.00000000       0.00000000       0.00000000       0.00000000       0.00000000       0.00000000
H        2.80615512       0.00000000      14.58243212        1       1.00000000       0.00000000       0.00000000       0.00000000       0.00000000       0.00000000       0.00000000
H        1.40307756       2.43020162      14.58243212        1       1.00000000       0.00000000       0.00000000       0.00000000       0.00000000       0.00000000       0.00000000
H        4.20923268       2.43020162      14.58243212        1       1.00000000       0.00000000       0.00000000       0.00000000       0.00000000       0.00000000       0.00000000
H        1.40307759       4.05033583      16.81106487        0       1.00000000       0.00000176       0.00000025       0.00000102      -0.00000587       0.00000070       0.00000037
H        5.61231134       4.86040367       7.77172774        0       1.00000000      -0.00000147      -0.00000019      -0.00000055       0.00000076      -0.00000121       0.00000112
H        5.61230953       1.62013414      16.81106519        0       1.00000000      -0.00000009       0.00000043      -0.00000069       0.00000126      -0.00000135      -0.00000053
H        4.20923352       2.43020144       7.77172702        0       1.00000000      -0.00000085      -0.00000036       0.00000030      -0.00000035       0.00000006       0.00000202
H        2.80615497       1.62013378      16.81106397        0       1.00000000      -0.00000030      -0.00000035       0.00000034       0.00000028      -0.00000084       0.00000120
H        2.80615641       4.86040373       7.77172751        0       1.00000000      -0.00000018      -0.00000006      -0.00000127      -0.00000197      -0.00000270       0.00000036
H        4.20923251       4.05033545      16.81106424        0       1.00000000       0.00000077      -0.00000007       0.00000135       0.00000523       0.00000015      -0.00000295
H        1.40307859       2.43020249       7.77172706        0       1.00000000      -0.00000058       0.00000011       0.00000038       0.00000088       0.00000242      -0.00000063
20
Lattice="5.612310241546866 0.0 0.0 0.0 4.860403243099165 0.0 0.0 0.0 24.582432123328676" Properties=species:S:1:pos:R:3:tags:I:1:masses:R:1:momenta:R:3:forces:R:3 KEmax=25.851991011651638 iter=119999 volume=670.5618179858607 ns_energy=-13.62008061339073 last_walked_iter_clone=119598 energy=-13.620080613390773 stress="0.025725802403496256 9.121458917424555e-10 -1.434443224292984e-08 9.121458917424555e-10 0.025725827385379568 -9.57588617401046e-10 -1.434443224292984e-08 -9.57588617401046e-10 0.013287014311724726" pbc="T T F"
H        1.40307756       0.81006721      10.00000000        3       1.00000000       0.00000000       0.00000000       0.00000000       0.00000000       0.00000000       0.00000000
H        4.20923268       0.81006721      10.00000000        3       1.00000000       0.00000000       0.00000000       0.00000000       0.00000000       0.00000000       0.00000000
H        0.00000000       3.24026883      10.00000000        3       1.00000000       0.00000000       0.00000000       0.00000000       0.00000000       0.00000000       0.00000000
H        2.80615512       3.24026883      10.00000000        3       1.00000000       0.00000000       0.00000000       0.00000000       0.00000000       0.00000000       0.00000000
H        0.00000000       1.62013441      12.29121606        2       1.00000000       0.00000000       0.00000000       0.00000000       0.00000000       0.00000000       0.00000000
H        2.80615512       1.62013441      12.29121606        2       1.00000000       0.00000000       0.00000000       0.00000000       0.00000000       0.00000000       0.00000000
H        1.40307756       4.05033604      12.29121606        2       1.00000000       0.00000000       0.00000000       0.00000000       0.00000000       0.00000000       0.00000000
H        4.20923268       4.05033604      12.29121606        2       1.00000000       0.00000000       0.00000000       0.00000000       0.00000000       0.00000000       0.00000000
H        0.00000000       0.00000000      14.58243212        1       1.00000000       0.00000000       0.00000000       0.00000000       0.00000000       0.00000000       0.00000000
H        2.80615512       0.00000000      14.58243212        1       1.00000000       0.00000000       0.00000000       0.00000000       0.00000000       0.00000000       0.00000000
H        1.40307756       2.43020162      14.58243212        1       1.00000000       0.00000000       0.00000000       0.00000000       0.00000000       0.00000000       0.00000000
H        4.20923268       2.43020162      14.58243212        1       1.00000000       0.00000000       0.00000000       0.00000000       0.00000000       0.00000000       0.00000000
H        1.40307647       4.05033567      16.81106551        0       1.00000000      -0.00000091      -0.00000052      -0.00000126      -0.00000587       0.00000070       0.00000037
H        5.61231156       0.00000045       7.77172648        0       1.00000000       0.00000015       0.00000124       0.00000096       0.00000076      -0.00000121       0.00000112
H       -0.00000072       1.62013480      16.81106487        0       1.00000000       0.00000056       0.00000025      -0.00000004       0.00000126      -0.00000135      -0.00000053
H        4.20923317       2.43020180       7.77172691        0       1.00000000      -0.00000044       0.00000146       0.00000045      -0.00000035       0.00000006       0.00000202
H        2.80615541       1.62013388      16.81106517        0       1.00000000      -0.00000008      -0.00000011       0.00000045       0.00000028      -0.00000084       0.00000120
H        2.80615602       4.86040386       7.77172752        0       1.00000000       0.00000090       0.00000063       0.00000050      -0.00000197      -0.00000270       0.00000036
H        4.20923213       4.05033657      16.81106500        0       1.00000000      -0.00000060      -0.00000072      -0.00000038       0.00000523       0.00000015      -0.00000295
H        1.40307851       2.43020187       7.77172649        0       1.00000000      -0.00000007      -0.00000032      -0.00000010       0.00000088       0.00000242      -0.00000063
20
Lattice="5.612310241546866 0.0 0.0 0.0 4.860403243099165 0.0 0.0 0.0 24.582432123328676" Properties=species:S:1:pos:R:3:tags:I:1:masses:R:1:momenta:R:3:forces:R:3 KEmax=25.851991011651638 iter=119999 volume=670.5618179858607 ns_energy=-13.620080613390444 last_walked_iter_clone=119875 energy=-13.620080613390773 stress="0.025725802403496256 9.121458917424555e-10 -1.434443224292984e-08 9.121458917424555e-10 0.025725827385379568 -9.57588617401046e-10 -1.434443224292984e-08 -9.57588617401046e-10 0.013287014311724726" pbc="T T F"
H        1.40307756       0.81006721      10.00000000        3       1.00000000       0.00000000       0.00000000       0.00000000       0.00000000       0.00000000       0.00000000