20
Lattice="5.612310241546866 0.0 0.0 0.0 4.860403243099165 0.0 0.0 0.0 24.582432123328676" Properties=species:S:1:pos:R:3:tags:I:1:masses:R:1:momenta:R:3 KEmax=25.851991011651638 iter=99 volume=670.5618179858607 ns_energy=661.018915552663 last_walked_iter_clone=70 ns_P=0.0 config_n_global=99 ns_KE=23.63650862701784 pbc="T T F"
H        1.40307756       0.81006721      10.00000000        3       1.00000000       0.00000000       0.00000000       0.00000000
H        4.20923268       0.81006721      10.00000000        3       1.00000000       0.00000000       0.00000000       0.00000000
H        0.00000000       3.24026883      10.00000000        3       1.00000000       0.00000000       0.00000000       0.00000000
H        2.80615512       3.24026883      10.00000000        3       1.00000000       0.00000000       0.00000000       0.00000000
H        0.00000000       1.62013441      12.29121606        2       1.00000000       0.00000000       0.00000000       0.00000000
H        2.80615512       1.62013441      12.29121606        2       1.00000000       0.00000000       0.00000000       0.00000000
H        1.40307756       4.05033604      12.29121606        2       1.00000000       0.00000000       0.00000000       0.00000000
H        4.20923268       4.05033604      12.29121606        2       1.00000000       0.00000000       0.00000000       0.00000000
H        0.00000000       0.00000000      14.58243212        1       1.00000000       0.00000000       0.00000000       0.00000000
H        2.80615512       0.00000000      14.58243212        1       1.00000000       0.00000000       0.00000000       0.00000000
H        1.40307756       2.43020162      14.58243212        1       1.00000000       0.00000000       0.00000000       0.00000000
H        4.20923268       2.43020162      14.58243212        1       1.00000000       0.00000000       0.00000000       0.00000000
H        1.69502662       3.37480332      21.27717578        0       1.00000000       0.97537905       0.40636942       0.45653772
H        3.29411127       0.02573260       4.54535029        0       1.00000000       0.00262477      -0.88980239      -0.92720991
H        0.43437222       4.84073875      19.62087885        0       1.00000000      -1.19849739      -1.59082862       0.34046347
H        4.34551026       1.82278669       5.33680768        0       1.00000000       0.76165263       2.48511306       1.28600614
H        2.41593829       1.91013873      20.40471827        0       1.00000000       0.04576051       2.97198103       0.58796732
H        5.03948649       2.13781015       7.04470831        0       1.00000000      -1.61749206      -0.54109009      -1.18136351
H        3.06788783       4.54722467      18.94651382        0       1.00000000      -2.43367574       1.47546277      -2.49630718
H        4.08994646       2.87973841       6.32849861        0       1.00000000       1.88842173       0.43269046       0.48376791
20
Lattice="5.612310241546866 0.0 0.0 0.0 4.860403243099165 0.0 0.0 0.0 24.582432123328676" Properties=species:S:1:pos:R:3:tags:I:1:masses:R:1:momenta:R:3 KEmax=25.851991011651638 iter=199 volume=670.5618179858607 ns_energy=65.61651849137375 last_walked_iter_clone=163 ns_P=0.0 config_n_global=199 ns_KE=24.702643023325777 pbc="T T F"
H        1.40307756       0.81006721      10.00000000        3       1.00000000       0.00000000       0.00000000       0.00000000
H        4.20923268       0.81006721      10.00000000        3       1.00000000       0.00000000       0.00000000       0.00000000
H        0.00000000       3.24026883      10.00000000        3       1.00000000       0.00000000       0.00000000       0.00000000
H        2.80615512       3.24026883      10.00000000        3       1.00000000       0.00000000       0.00000000       0.00000000
H        0.00000000       1.62013441      12.29121606        2       1.00000000       0.00000000       0.00000000       0.00000000
H        2.80615512       1.62013441      12.29121606        2       1.00000000       0.00000000       0.00000000       0.00000000
H        1.40307756       4.05033604      12.29121606        2       1.00000000       0.00000000       0.00000000       0.00000000
H        4.20923268       4.05033604      12.29121606        2       1.00000000       0.00000000       0.00000000       0.00000000
H        0.00000000       0.00000000      14.58243212        1       1.00000000       0.00000000       0.00000000       0.00000000
H        2.80615512       0.00000000      14.58243212        1       1.00000000       0.00000000       0.00000000       0.00000000
H        1.40307756       2.43020162      14.58243212        1       1.00000000       0.00000000       0.00000000       0.00000000
H        4.20923268       2.43020162      14.58243212        1       1.00000000       0.00000000       0.00000000       0.00000000
H        3.93229258       4.77331989      18.57373583        0       1.00000000      -0.21064478       2.09924677       1.43825742
H        5.13508669       0.54898750       7.61134651        0       1.00000000      -2.16538721       2.69756620       0.01212016
H        3.76772095       1.89722658      20.79576116        0       1.00000000       0.90017785       0.25819820      -0.97511858
H        3.49053338       0.33824543       5.53954329        0       1.00000000      -2.45427560       0.83613448      -0.43238835
H        3.65440486       0.26317433      21.70001537        0       1.00000000      -1.42842057       0.28095628       1.99929581
H        5.36798970       3.69372221       7.49220076        0       1.00000000       0.30742065      -0.28497784       2.28768969
H        5.40288642       3.28066081      16.94510649        0       1.00000000       1.44055246       1.21218693       1.43868324
H        3.54693079       3.33951971       7.43849560        0       1.00000000      -2.16948969      -0.11694464      -0.56716869
20
Lattice="5.612310241546866 0.0 0.0 0.0 4.860403243099165 0.0 0.0 0.0 24.582432123328676" Properties=species:S:1:pos:R:3:tags:I:1:masses:R:1:momenta:R:3 KEmax=25.851991011651638 iter=299 volume=670.5618179858607 ns_energy=21.30554905961748 last_walked_iter_clone=201 ns_P=0.0 config_n_global=299 ns_KE=23.14949874973842 pbc="T T F"
H        1.40307756       0.81006721      10.00000000        3       1.00000000       0.00000000       0.00000000       0.00000000
H        4.20923268       0.81006721      10.00000000        3       1.00000000       0.00000000       0.00000000       0.00000000
H        0.00000000       3.24026883      10.00000000        3       1.00000000       0.00000000       0.00000000       0.00000000
H        2.80615512       3.24026883      10.00000000        3       1.00000000       0.00000000       0.00000000       0.00000000
H        0.00000000       1.62013441      12.29121606        2       1.00000000       0.00000000       0.00000000       0.00000000
H        2.80615512       1.62013441      12.29121606        2       1.00000000       0.00000000       0.00000000       0.00000000
H        1.40307756       4.05033604      12.29121606        2       1.00000000       0.00000000       0.00000000       0.00000000
H        4.20923268       4.05033604      12.29121606        2       1.00000000       0.00000000       0.00000000       0.00000000
H        0.00000000       0.00000000      14.58243212        1       1.00000000       0.00000000       0.00000000       0.00000000
H        2.80615512       0.00000000      14.58243212        1       1.00000000       0.00000000       0.00000000       0.00000000
H        1.40307756       2.43020162      14.58243212        1       1.00000000       0.00000000       0.00000000       0.00000000
H        4.20923268       2.43020162      14.58243212        1       1.00000000       0.00000000       0.00000000       0.00000000
H        2.04911479       2.78921883      20.67424258        0       1.00000000      -1.82477708      -2.42842417      -1.63994864
H        0.84879016       1.03610729       2.50575541        0       1.00000000      -0.93358030       0.14303138      -1.30827895
H        1.45987415       3.35210331      18.03269648        0       1.00000000       1.11390822      -0.97589468      -0.62415450
H        0.08127200       3.76325810       5.25631482        0       1.00000000      -1.29936897       0.06502783      -1.74781687
H        0.91132209       1.46870572      22.28110498        0       1.00000000       2.00072717      -1.48468917      -0.71448072
H        3.65452411       0.52454425       5.22027538        0       1.00000000       0.18510753      -0.21973156      -1.23076418
H        4.68359088       1.07273564      21.45991860        0       1.00000000       0.08019768      -0.93836456      -1.13306500
H        4.33964708       2.75184796       6.37335198        0       1.00000000      -1.08859233      -0.96957452       3.44060730
20
Lattice="5.612310241546866 0.0 0.0 0.0 4.860403243099165 0.0 0.0 0.0 24.582432123328676" Properties=species:S:1:pos:R:3:tags:I:1:masses:R:1:momenta:R:3 KEmax=25.851991011651638 iter=399 volume=670.5618179858607 ns_energy=16.140458818862587 last_walked_iter_clone=259 ns_P=0.0 config_n_global=399 ns_KE=24.430620073569163 pbc="T T F"
H        1.40307756       0.81006721      10.00000000        3       1.00000000       0.00000000       0.00000000       0.00000000
H        4.20923268       0.81006721      10.00000000        3       1.00000000       0.00000000       0.00000000       0.00000000
H        0.00000000       3.24026883      10.00000000        3       1.00000000       0.00000000       0.00000000       0.00000000
H        2.80615512       3.24026883      10.00000000        3       1.00000000       0.00000000       0.00000000       0.00000000
H        0.00000000       1.62013441      12.29121606        2       1.00000000       0.00000000       0.00000000       0.00000000
H        2.80615512       1.62013441      12.29121606        2       1.00000000       0.00000000       0.00000000       0.00000000
H        1.40307756       4.05033604      12.29121606        2       1.00000000       0.00000000       0.00000000       0.00000000
H        4.20923268       4.05033604      12.29121606        2       1.00000000       0.00000000       0.00000000       0.00000000
H        0.00000000       0.00000000      14.58243212        1       1.00000000       0.00000000       0.00000000       0.00000000
H        2.80615512       0.00000000      14.58243212        1       1.00000000       0.00000000       0.00000000       0.00000000
H        1.40307756       2.43020162      14.58243212        1       1.00000000       0.00000000       0.00000000       0.00000000
H        4.20923268       2.43020162      14.58243212        1       1.00000000       0.00000000       0.00000000       0.00000000
H        2.00941829       2.63720122      20.31285736        0       1.00000000       0.53271060      -0.30847895       0.86591735
H        1.09005084       1.04827295       1.68856568        0       1.00000000       0.67655644      -0.21802529      -2.08482277
H        0.86452274       2.93780150      18.35774241        0       1.00000000      -3.67964260      -0.07314843      -0.17692160
H        0.62112641       4.20086816       5.34907187        0       1.00000000       2.00228988       1.69876732       0.55589563
H        1.30583945       1.62457835      23.05583920        0       1.00000000       2.11189113      -0.52599571       0.86763638
H        3.83158731       0.75066006       5.47275723        0       1.00000000      -0.13786679       1.59188773       1.00008444
H        4.59854061       1.45304548      20.98352946        0       1.00000000       1.04171509       2.39967967      -1.98025446
H        4.28511167       2.65341313       7.09580439        0       1.00000000      -0.65509352       0.19204829       1.35145077
20
Lattice="5.612310241546866 0.0 0.0 0.0 4.860403243099165 0.0 0.0 0.0 24.582432123328676" Properties=species:S:1:pos:R:3:tags:I:1:masses:R:1:momenta:R:3 KEmax=25.851991011651638 iter=499 volume=670.5618179858607 ns_energy=14.477745692345703 last_walked_iter_clone=422 ns_P=0.0 config_n_global=499 ns_KE=22.646314582816053 pbc="T T F"
H        1.40307756       0.81006721      10.00000000        3       1.00000000       0.00000000       0.00000000       0.00000000
H        4.20923268       0.81006721      10.00000000        3       1.00000000       0.00000000       0.00000000       0.00000000
H        0.00000000       3.24026883      10.00000000        3       1.00000000       0.00000000       0.00000000       0.00000000
H        2.80615512       3.24026883      10.00000000        3       1.00000000       0.00000000       0.00000000       0.00000000
H        0.00000000       1.62013441      12.29121606        2       1.00000000       0.00000000       0.00000000       0.00000000
H        2.80615512       1.62013441      12.29121606        2       1.00000000       0.00000000       0.00000000       0.00000000
H        1.40307756       4.05033604      12.29121606        2       1.00000000       0.00000000       0.00000000       0.00000000
H        4.20923268       4.05033604      12.29121606        2       1.00000000       0.00000000       0.00000000       0.00000000
H        0.00000000       0.00000000      14.58243212        1       1.00000000       0.00000000       0.00000000       0.00000000
H        2.80615512       0.00000000      14.58243212        1       1.00000000       0.00000000       0.00000000       0.00000000
H        1.40307756       2.43020162      14.58243212        1       1.00000000       0.00000000       0.00000000       0.00000000
H        4.20923268       2.43020162      14.58243212        1       1.00000000       0.00000000       0.00000000       0.00000000
H        0.85129205       5.05056203      22.32855828        0       1.00000000      -0.95371572       0.85127672      -1.68128170
H        1.53105545       4.62862128       3.51800281        0       1.00000000       0.08071629       2.42771284      -0.26459027
H        2.89279962       1.48886855      23.11825340        0       1.00000000       0.30263144      -0.90286529       1.92936037
H        0.18276136       2.87190375       2.60142220        0       1.00000000      -2.72340743       0.53724583       0.73557329
H        3.70054967       2.56664013      20.34844920        0       1.00000000      -1.15431553      -0.43137145       0.21669214
H        4.50898815       1.41197049       5.25437574        0       1.00000000      -1.70190675       0.09060011       2.22266096
H        5.47570602       1.59555542      19.05465575        0       1.00000000       1.63715857      -1.69338719       0.47855134
H        2.20019137       2.61558454       5.54084011        0       1.00000000       0.56538304      -1.48243688      -2.06905670
20
Lattice="5.612310241546866 0.0 0.0 0.0 4.860403243099165 0.0 0.0 0.0 24.582432123328676" Properties=species:S:1:pos:R:3:tags:I:1:masses:R:1:momenta:R:3 KEmax=25.851991011651638 iter=599 volume=670.5618179858607 ns_energy=13.17632192109056 last_walked_iter_clone=472 ns_P=0.0 config_n_global=599 ns_KE=21.98092452292143 pbc="T T F"
H        1.40307756       0.81006721      10.00000000        3       1.00000000       0.00000000       0.00000000       0.00000000
H        4.20923268       0.81006721      10.00000000        3       1.00000000       0.00000000       0.00000000       0.00000000
H        0.00000000       3.24026883      10.00000000        3       1.00000000       0.00000000       0.00000000       0.00000000
H        2.80615512       3.24026883      10.00000000        3       1.00000000       0.00000000       0.00000000       0.00000000
H        0.00000000       1.62013441      12.29121606        2       1.00000000       0.00000000       0.00000000       0.00000000
H        2.80615512       1.62013441      12.29121606        2       1.00000000       0.00000000       0.00000000       0.00000000
H        1.40307756       4.05033604      12.29121606        2       1.00000000       0.00000000       0.00000000       0.00000000
H        4.20923268       4.05033604      12.29121606        2       1.00000000       0.00000000       0.00000000       0.00000000
H        0.00000000       0.00000000      14.58243212        1       1.00000000       0.00000000       0.00000000       0.00000000
H        2.80615512       0.00000000      14.58243212        1       1.00000000       0.00000000       0.00000000       0.00000000
H        1.40307756       2.43020162      14.58243212        1       1.00000000       0.00000000       0.00000000       0.00000000
H        4.20923268       2.43020162      14.58243212        1       1.00000000       0.00000000       0.00000000       0.00000000
H        2.66993649       3.49207782      17.30623138        0       1.00000000       1.77153251       0.23942286      -1.38943196
H        2.94553802       3.80718818       6.05850730        0       1.00000000       1.11867283       2.25923327      -0.68170928
H        4.75017934       2.60427715      23.99949372        0       1.00000000       0.20969559      -0.07210112       1.00723305
H       -0.14336853       2.30767405       0.48548231        0       1.00000000      -2.10534634      -1.47988395       1.60970981
H        2.27001203       1.57612140      20.10075942        0       1.00000000      -0.47885208      -0.70916553      -2.38035505
H        4.64558230       2.79999070       3.83098127        0       1.00000000      -0.57010727      -1.38093923      -0.89410236
H        4.97705065       4.08333689      18.88055507        0       1.00000000       0.12281069      -0.66947262      -2.63805474
H        5.29464462       1.23666423       6.86654661        0       1.00000000      -0.19527672      -1.31144126      -1.76851104
20
Lattice="5.612310241546866 0.0 0.0 0.0 4.860403243099165 0.0 0.0 0.0 24.582432123328676" Properties=species:S:1:pos:R:3:tags:I:1:masses:R:1:momenta:R:3 KEmax=25.851991011651638 iter=699 volume=670.5618179858607 ns_energy=11.78200241919804 last_walked_iter_clone=594 ns_P=0.0 config_n_global=699 ns_KE=19.79647295636326 pbc="T T F"
H        1.40307756       0.81006721      10.00000000        3       1.00000000       0.00000000       0.00000000       0.00000000
H        4.20923268       0.81006721      10.00000000        3       1.00000000       0.00000000       0.00000000       0.00000000
H        0.00000000       3.24026883      10.00000000        3       1.00000000       0.00000000       0.00000000       0.00000000
H        2.80615512       3.24026883      10.00000000        3       1.00000000       0.00000000       0.00000000       0.00000000
H        0.00000000       1.62013441      12.29121606        2       1.00000000       0.00000000       0.00000000       0.00000000
H        2.80615512       1.62013441      12.29121606        2       1.00000000       0.00000000       0.00000000       0.00000000
H        1.40307756       4.05033604      12.29121606        2       1.00000000       0.00000000       0.00000000       0.00000000
H        4.20923268       4.05033604      12.29121606        2       1.00000000       0.00000000       0.00000000       0.00000000
H        0.00000000       0.00000000      14.58243212        1       1.00000000       0.00000000       0.00000000       0.00000000
H        2.80615512       0.00000000      14.58243212        1       1.00000000       0.00000000       0.00000000       0.00000000
H        1.40307756       2.43020162      14.58243212        1       1.00000000       0.00000000       0.00000000       0.00000000
H        4.20923268       2.43020162      14.58243212        1       1.00000000       0.00000000       0.00000000       0.00000000
H        1.43410994       4.08057173      21.34819518        0       1.00000000      -0.50286320      -1.58232426       0.45501446
H        0.81912919       2.70975978       6.73573807        0       1.00000000       0.21112994      -1.14260996       0.34715015
H        4.51226140       2.54470694      18.71356201        0       1.00000000       1.22684127      -2.76193959       0.13584214
H        1.74959383       4.54781363       3.25071989        0       1.00000000       0.13454122      -0.99832114      -2.32346050
H        1.91553709       4.90711710      17.37457434        0       1.00000000       0.16580329       1.81548744      -0.82310148
H        5.15805194       2.99724177       0.81462991        0       1.00000000      -1.21909444      -0.22662448       0.81567639
H        3.14950871       0.98053363      24.51292871        0       1.00000000      -1.33284646       1.29144850       1.31939100
H        4.24142479       1.19064200       1.89203507        0       1.00000000      -0.10242713       2.77363363       0.70782483
20
Lattice="5.612310241546866 0.0 0.0 0.0 4.860403243099165 0.0 0.0 0.0 24.582432123328676" Properties=species:S:1:pos:R:3:tags:I:1:masses:R:1:momenta:R:3 KEmax=25.851991011651638 iter=799 volume=670.5618179858607 ns_energy=10.683696137450738 last_walked_iter_clone=618 ns_P=0.0 config_n_global=799 ns_KE=19.667592538861008 pbc="T T F"
H        1.40307756       0.81006721      10.00000000        3       1.00000000       0.00000000       0.00000000       0.00000000
H        4.20923268       0.81006721      10.00000000        3       1.00000000       0.00000000       0.00000000       0.00000000
H        0.00000000       3.24026883      10.00000000        3       1.00000000       0.00000000       0.00000000       0.00000000
H        2.80615512       3.24026883      10.00000000        3       1.00000000       0.00000000       0.00000000       0.00000000
H        0.00000000       1.62013441      12.29121606        2       1.00000000       0.00000000       0.00000000       0.00000000
H        2.80615512       1.62013441      12.29121606        2       1.00000000       0.00000000       0.00000000       0.00000000
H        1.40307756       4.05033604      12.29121606        2       1.00000000       0.00000000       0.00000000       0.00000000
H        4.20923268       4.05033604      12.29121606        2       1.00000000       0.00000000       0.00000000       0.00000000
H        0.00000000       0.00000000      14.58243212        1       1.00000000       0.00000000       0.00000000       0.00000000
H        2.80615512       0.00000000      14.58243212        1       1.00000000       0.00000000       0.00000000       0.00000000
H        1.40307756       2.43020162      14.58243212        1       1.00000000       0.00000000       0.00000000       0.00000000
H        4.20923268       2.43020162      14.58243212        1       1.00000000       0.00000000       0.00000000       0.00000000
H        0.23458805       2.82532452      20.78158819        0       1.00000000      -1.54461225       0.78239236      -1.14675209
H        2.99308917       4.24084650       6.12731213        0       1.00000000      -2.17596052       0.37199058       0.89822286
H        2.12394470       0.63072441      23.25268711        0       1.00000000      -0.03794379       2.69148791       0.85555340
H        0.95044764       1.99213691       5.60002467        0       1.00000000       0.65954167       1.96567653      -0.82315076
H        5.20170005       4.25972944      18.45504565        0       1.00000000       2.38096473       0.95618815       0.68641494
H        0.89150893       0.75095409       0.96274873        0       1.00000000      -1.27180404      -0.19318574       1.03614112
H        5.00261618       1.37408756      16.93463307        0       1.00000000       0.14031344      -1.51941808       0.83277499
H        3.93662117       2.07917051       6.89452845        0       1.00000000      -0.78576746      -1.61849956      -0.58869829
20
Lattice="5.612310241546866 0.0 0.0 0.0 4.860403243099165 0.0 0.0 0.0 24.582432123328676" Properties=species:S:1:pos:R:3:tags:I:1:masses:R:1:momenta:R:3 KEmax=25.851991011651638 iter=899 volume=670.5618179858607 ns_energy=9.508116165310426 last_walked_iter_clone=805 ns_P=0.0 config_n_global=899 ns_KE=17.350021878871516 pbc="T T F"
H        1.40307756       0.81006721      10.00000000        3       1.00000000       0.00000000       0.00000000       0.00000000
H        4.20923268       0.81006721      10.00000000        3       1.00000000       0.00000000       0.00000000       0.00000000
H        0.00000000       3.24026883      10.00000000        3       1.00000000       0.00000000       0.00000000       0.00000000
H        2.80615512       3.24026883      10.00000000        3       1.00000000       0.00000000       0.00000000       0.00000000
H        0.00000000       1.62013441      12.29121606        2       1.00000000       0.00000000       0.00000000       0.00000000
H        2.80615512       1.62013441      12.29121606        2       1.00000000       0.00000000       0.00000000       0.00000000
H        1.40307756       4.05033604      12.29121606        2       1.00000000       0.00000000       0.00000000       0.00000000
H        4.20923268       4.05033604      12.29121606        2       1.00000000       0.00000000       0.00000000       0.00000000
H        0.00000000       0.00000000      14.58243212        1       1.00000000       0.00000000       0.00000000       0.00000000
H        2.80615512       0.00000000      14.58243212        1       1.00000000       0.00000000       0.00000000       0.00000000
H        1.40307756       2.43020162      14.58243212        1       1.00000000       0.00000000       0.00000000       0.00000000
H        4.20923268       2.43020162      14.58243212        1       1.00000000       0.00000000       0.00000000       0.00000000
H        1.32941553       3.52895729      23.85337521        0       1.00000000      -0.23716153      -0.08528767       1.64428468
H        2.13581176       1.07130685       5.75463972        0       1.00000000      -1.18533009      -0.32085233      -1.68416814
H        0.78965772       1.99335927      22.08034843        0       1.00000000      -2.29725945      -0.71107289      -0.48959508
H        0.61376506       4.69692713       4.04385698        0       1.00000000      -1.53764794      -0.63821124      -0.48313356
H        3.72414719       0.68195954      18.20462446        0       1.00000000      -0.16708605      -0.79342595       1.44206193
H        5.39621902       2.08219714       2.34045787        0       1.00000000      -1.58698315       0.11958270       0.65790774
H        1.09390065       0.52234965      18.50567466        0       1.00000000       1.80223908      -2.32495732       0.44707391
H        5.39865897       0.07416619       8.21759858        0       1.00000000       0.52259528      -1.69073507      -0.93431944
20
Lattice="5.612310241546866 0.0 0.0 0.0 4.860403243099165 0.0 0.0 0.0 24.582432123328676" Properties=species:S:1:pos:R:3:tags:I:1:masses:R:1:momenta:R:3 KEmax=25.851991011651638 iter=999 volume=670.5618179858607 ns_energy=8.49085940232638 last_walked_iter_clone=854 ns_P=0.0 config_n_global=999 ns_KE=16.6291223003236 pbc="T T F"
H        1.40307756       0.81006721      10.00000000        3       1.00000000       0.00000000       0.00000000       0.00000000
H        4.20923268       0.81006721      10.00000000        3       1.00000000       0.00000000       0.00000000       0.00000000
H        0.00000000       3.24026883      10.00000000        3       1.00000000       0.00000000       0.00000000       0.00000000
H        2.80615512       3.24026883      10.00000000        3       1.00000000       0.00000000       0.00000000       0.00000000
H        0.00000000       1.62013441      12.29121606        2       1.00000000       0.00000000       0.00000000       0.00000000
H        2.80615512       1.62013441      12.29121606        2       1.00000000       0.00000000       0.00000000       0.00000000
H        1.40307756       4.05033604      12.29121606        2       1.00000000       0.00000000       0.00000000       0.00000000
H        4.20923268       4.05033604      12.29121606        2       1.00000000       0.00000000       0.00000000       0.00000000
H        0.00000000       0.00000000      14.58243212        1       1.00000000       0.00000000       0.00000000       0.00000000
H        2.80615512       0.00000000      14.58243212        1       1.00000000       0.00000000       0.00000000       0.00000000
H        1.40307756       2.43020162      14.58243212        1       1.00000000       0.00000000       0.00000000       0.00000000
H        4.20923268       2.43020162      14.58243212        1       1.00000000       0.00000000       0.00000000       0.00000000
H        4.15051438       2.82728329      24.45186432        0       1.00000000       0.90130375       0.77933298      -2.31040301
H        0.00547990       2.93231554       3.57572097        0       1.00000000       1.19778215      -0.97472652      -0.29969662
H        1.98272891       3.76162477      20.65712480        0       1.00000000      -0.00029624       0.92558378       0.36107479
H        0.20502119       4.04947277       0.17408024        0       1.00000000       0.90997628      -0.01466337      -0.24773981
H        2.04034839       0.18830852      23.67882263        0       1.00000000       2.34411424      -1.44959107       1.07565859
H        3.01447803       1.41678402       4.95209473        0       1.00000000       0.25289861      -0.38619572       1.62475499
H        2.32778108       1.28713486      20.79209444        0       1.00000000      -0.48366500      -0.96895564      -2.91864894
H        3.66552670       1.43492700       2.48234733        0       1.00000000      -0.57450662       0.29387148       0.65981612
20
Lattice="5.612310241546866 0.0 0.0 0.0 4.860403243099165 0.0 0.0 0.0 24.582432123328676" Properties=species:S:1:pos:R:3:tags:I:1:masses:R:1:momenta:R:3 KEmax=25.851991011651638 iter=1099 volume=670.5618179858607 ns_energy=7.509637107617568 last_walked_iter_clone=993 ns_P=0.0 config_n_global=1099 ns_KE=14.742166216660216 pbc="T T F"