20
Lattice="5.612310241546866 0.0 0.0 0.0 4.860403243099165 0.0 0.0 0.0 24.582432123328676" Properties=species:S:1:pos:R:3:tags:I:1:masses:R:1:momenta:R:3:forces:R:3 KEmax=25.851991011651638 iter=111329 volume=670.5618179858607 ns_energy=-13.62008061337888 last_walked_iter_clone=111202 energy=-13.620080613385904 stress="0.025725811057198643 6.6446719500721034e-09 1.1221698660992159e-08 6.6446719500721034e-09 0.02572582063513172 -3.5662576839767195e-08 1.1221698660992159e-08 -3.5662576839767195e-08 0.013287011701662058" pbc="T T F"
H        1.40307756       0.81006721      10.00000000        3       1.00000000       0.00000000       0.00000000       0.00000000       0.00000000       0.00000000       0.00000000
H        4.20923268       0.81006721      10.00000000        3       1.00000000       0.00000000       0.00000000       0.00000000       0.00000000       0.00000000       0.00000000
H        0.00000000       3.24026883      10.00000000        3       1.00000000       0.00000000       0.00000000       0.00000000       0.00000000       0.00000000       0.00000000
H        2.80615512       3.24026883      10.00000000        3       1.00000000       0.00000000       0.00000000       0.00000000       0.00000000       0.00000000       0.00000000
H        0.00000000       1.62013441      12.29121606        2       1.00000000       0.00000000       0.00000000       0.00000000       0.00000000       0.00000000       0.00000000
H        2.80615512       1.62013441      12.29121606        2       1.00000000       0.00000000       0.00000000       0.00000000       0.00000000       0.00000000       0.00000000
H        1.40307756       4.05033604      12.29121606        2       1.00000000       0.00000000       0.00000000       0.00000000       0.00000000       0.00000000       0.00000000
H        4.20923268       4.05033604      12.29121606        2       1.00000000       0.00000000       0.00000000       0.00000000       0.00000000       0.00000000       0.00000000
H        0.00000000       0.00000000      14.58243212        1       1.00000000       0.00000000       0.00000000       0.00000000       0.00000000       0.00000000       0.00000000
H        2.80615512       0.00000000      14.58243212        1       1.00000000       0.00000000       0.00000000       0.00000000       0.00000000       0.00000000       0.00000000
H        1.40307756       2.43020162      14.58243212        1       1.00000000       0.00000000       0.00000000       0.00000000       0.00000000       0.00000000       0.00000000
H        4.20923268       2.43020162      14.58243212        1       1.00000000       0.00000000       0.00000000       0.00000000       0.00000000       0.00000000       0.00000000
H        1.40307802       4.05033575      16.81106486        0       1.00000000      -0.00000000       0.00000091       0.00000004       0.00000445       0.00000152       0.00000340
H       -0.00000024       4.86040397       7.77172749        0       1.00000000      -0.00000103       0.00000071       0.00000134       0.00000023      -0.00000478       0.00000171
H       -0.00000019       1.62013522      16.81106670        0       1.00000000       0.00000034      -0.00000050       0.00000022      -0.00000059       0.00000161       0.00000118
H        4.20923276       2.43020218       7.77172601        0       1.00000000      -0.00000092      -0.00000006       0.00000084       0.00000038       0.00000363      -0.00000008
H        2.80615448       1.62013430      16.81106466        0       1.00000000      -0.00000012      -0.00000014      -0.00000039       0.00000082      -0.00000013      -0.00000109
H        2.80615539       4.86040400       7.77172742        0       1.00000000       0.00000113      -0.00000030      -0.00000010       0.00000002      -0.00000175       0.00000141
H        4.20923218       4.05033598      16.81106672        0       1.00000000       0.00000036      -0.00000029       0.00000133      -0.00000457      -0.00000157      -0.00000127
H        1.40307876       2.43020328       7.77172688        0       1.00000000      -0.00000171      -0.00000073       0.00000120       0.00000074       0.00000040       0.00000357
20
Lattice="5.612310241546866 0.0 0.0 0.0 4.860403243099165 0.0 0.0 0.0 24.582432123328676" Properties=species:S:1:pos:R:3:tags:I:1:masses:R:1:momenta:R:3:forces:R:3 KEmax=25.851991011651638 iter=111329 volume=670.5618179858607 ns_energy=-13.620080613378915 last_walked_iter_clone=111215 energy=-13.620080613385904 stress="0.025725811057198643 6.6446719500721034e-09 1.1221698660992159e-08 6.6446719500721034e-09 0.02572582063513172 -3.5662576839767195e-08 1.1221698660992159e-08 -3.5662576839767195e-08 0.013287011701662058" pbc="T T F"
H        1.40307756       0.81006721      10.00000000        3       1.00000000       0.00000000       0.00000000       0.00000000       0.00000000       0.00000000       0.00000000
H        4.20923268       0.81006721      10.00000000        3       1.00000000       0.00000000       0.00000000       0.00000000       0.00000000       0.00000000       0.00000000
H        0.00000000       3.24026883      10.00000000        3       1.00000000       0.00000000       0.00000000       0.00000000       0.00000000       0.00000000       0.00000000
H        2.80615512       3.24026883      10.00000000        3       1.00000000       0.00000000       0.00000000       0.00000000       0.00000000       0.00000000       0.00000000
H        0.00000000       1.62013441      12.29121606        2       1.00000000       0.00000000       0.00000000       0.00000000       0.00000000       0.00000000       0.00000000
H        2.80615512       1.62013441      12.29121606        2       1.00000000       0.00000000       0.00000000       0.00000000       0.00000000       0.00000000       0.00000000
H        1.40307756       4.05033604      12.29121606        2       1.00000000       0.00000000       0.00000000       0.00000000       0.00000000       0.00000000       0.00000000
H        4.20923268       4.05033604      12.29121606        2       1.00000000       0.00000000       0.00000000       0.00000000       0.00000000       0.00000000       0.00000000
H        0.00000000       0.00000000      14.58243212        1       1.00000000       0.00000000       0.00000000       0.00000000       0.00000000       0.00000000       0.00000000
H        2.80615512       0.00000000      14.58243212        1       1.00000000       0.00000000       0.00000000       0.00000000       0.00000000       0.00000000       0.00000000
H        1.40307756       2.43020162      14.58243212        1       1.00000000       0.00000000       0.00000000       0.00000000       0.00000000       0.00000000       0.00000000
H        4.20923268       2.43020162      14.58243212        1       1.00000000       0.00000000       0.00000000       0.00000000       0.00000000       0.00000000       0.00000000
H        1.40307714       4.05033765      16.81106568        0       1.00000000       0.00000108       0.00000018       0.00000182       0.00000445       0.00000152       0.00000340
H       -0.00000114       0.00000018       7.77172757        0       1.00000000       0.00000033       0.00000017       0.00000013       0.00000023      -0.00000478       0.00000171
H        5.61230906       1.62013514      16.81106360        0       1.00000000       0.00000071      -0.00000098       0.00000124      -0.00000059       0.00000161       0.00000118
H        4.20923154       2.43020175       7.77172776        0       1.00000000      -0.00000139       0.00000008      -0.00000085       0.00000038       0.00000363      -0.00000008
H        2.80615458       1.62013571      16.81106529        0       1.00000000      -0.00000037      -0.00000094      -0.00000083       0.00000082      -0.00000013      -0.00000109
H        2.80615495       0.00000020       7.77172715        0       1.00000000      -0.00000192       0.00000014       0.00000042       0.00000002      -0.00000175       0.00000141
H        4.20923291       4.05033693      16.81106528        0       1.00000000      -0.00000029       0.00000002       0.00000037      -0.00000457      -0.00000157      -0.00000127
H        1.40307705       2.43020188       7.77172549        0       1.00000000      -0.00000079      -0.00000168       0.00000110       0.00000074       0.00000040       0.00000357
20
Lattice="5.612310241546866 0.0 0.0 0.0 4.860403243099165 0.0 0.0 0.0 24.582432123328676" Properties=species:S:1:pos:R:3:tags:I:1:masses:R:1:momenta:R:3:forces:R:3 KEmax=25.851991011651638 iter=111329 volume=670.5618179858607 ns_energy=-13.620080613379297 last_walked_iter_clone=111152 energy=-13.620080613385904 stress="0.025725811057198643 6.6446719500721034e-09 1.1221698660992159e-08 6.6446719500721034e-09 0.02572582063513172 -3.5662576839767195e-08 1.1221698660992159e-08 -3.5662576839767195e-08 0.013287011701662058" pbc="T T F"
H        1.40307756       0.81006721      10.00000000        3       1.00000000       0.00000000       0.00000000       0.00000000       0.00000000       0.00000000       0.00000000
H        4.20923268       0.81006721      10.00000000        3       1.00000000       0.00000000       0.00000000       0.00000000       0.00000000       0.00000000       0.00000000
H        0.00000000       3.24026883      10.00000000        3       1.00000000       0.00000000       0.00000000       0.00000000       0.00000000       0.00000000       0.00000000
H        2.80615512       3.24026883      10.00000000        3       1.00000000       0.00000000       0.00000000       0.00000000       0.00000000       0.00000000       0.00000000
H        0.00000000       1.62013441      12.29121606        2       1.00000000       0.00000000       0.00000000       0.00000000       0.00000000       0.00000000       0.00000000
H        2.80615512       1.62013441      12.29121606        2       1.00000000       0.00000000       0.00000000       0.00000000       0.00000000       0.00000000       0.00000000
H        1.40307756       4.05033604      12.29121606        2       1.00000000       0.00000000       0.00000000       0.00000000       0.00000000       0.00000000       0.00000000
H        4.20923268       4.05033604      12.29121606        2       1.00000000       0.00000000       0.00000000       0.00000000       0.00000000       0.00000000       0.00000000
H        0.00000000       0.00000000      14.58243212        1       1.00000000       0.00000000       0.00000000       0.00000000       0.00000000       0.00000000       0.00000000
H        2.80615512       0.00000000      14.58243212        1       1.00000000       0.00000000       0.00000000       0.00000000       0.00000000       0.00000000       0.00000000
H        1.40307756       2.43020162      14.58243212        1       1.00000000       0.00000000       0.00000000       0.00000000       0.00000000       0.00000000       0.00000000
H        4.20923268       2.43020162      14.58243212        1       1.00000000       0.00000000       0.00000000       0.00000000       0.00000000       0.00000000       0.00000000
H        1.40307983       4.05033571      16.81106463        0       1.00000000       0.00000139       0.00000271       0.00000044       0.00000445       0.00000152       0.00000340
H       -0.00000058       4.86040362       7.77172655        0       1.00000000       0.00000014      -0.00000035      -0.00000046       0.00000023      -0.00000478       0.00000171
H        5.61231131       1.62013388      16.81106527        0       1.00000000       0.00000106      -0.00000107       0.00000108      -0.00000059       0.00000161       0.00000118
H        4.20923154       2.43020235       7.77172797        0       1.00000000       0.00000073      -0.00000049       0.00000078       0.00000038       0.00000363      -0.00000008
H        2.80615687       1.62013449      16.81106515        0       1.00000000       0.00000077      -0.00000003       0.00000046       0.00000082      -0.00000013      -0.00000109
H        2.80615463       4.86040390       7.77172763        0       1.00000000       0.00000032       0.00000012       0.00000019       0.00000002      -0.00000175       0.00000141
H        4.20923371       4.05033535      16.81106482        0       1.00000000      -0.00000008      -0.00000013       0.00000149      -0.00000457      -0.00000157      -0.00000127
H        1.40307648       2.43020267       7.77172695        0       1.00000000      -0.00000249       0.00000051      -0.00000141       0.00000074       0.00000040       0.00000357
20
Lattice="5.612310241546866 0.0 0.0 0.0 4.860403243099165 0.0 0.0 0.0 24.582432123328676" Properties=species:S:1:pos:R:3:tags:I:1:masses:R:1:momenta:R:3:forces:R:3 KEmax=25.851991011651638 iter=111329 volume=670.5618179858607 ns_energy=-13.620080613379569 last_walked_iter_clone=111157 energy=-13.620080613385904 stress="0.025725811057198643 6.6446719500721034e-09 1.1221698660992159e-08 6.6446719500721034e-09 0.02572582063513172 -3.5662576839767195e-08 1.1221698660992159e-08 -3.5662576839767195e-08 0.013287011701662058" pbc="T T F"
H        1.40307756       0.81006721      10.00000000        3       1.00000000       0.00000000       0.00000000       0.00000000       0.00000000       0.00000000       0.00000000
H        4.20923268       0.81006721      10.00000000        3       1.00000000       0.00000000       0.00000000       0.00000000       0.00000000       0.00000000       0.00000000
H        0.00000000       3.24026883      10.00000000        3       1.00000000       0.00000000       0.00000000       0.00000000       0.00000000       0.00000000       0.00000000
H        2.80615512       3.24026883      10.00000000        3       1.00000000       0.00000000       0.00000000       0.00000000       0.00000000       0.00000000       0.00000000
H        0.00000000       1.62013441      12.29121606        2       1.00000000       0.00000000       0.00000000       0.00000000       0.00000000       0.00000000       0.00000000
H        2.80615512       1.62013441      12.29121606        2       1.00000000       0.00000000       0.00000000       0.00000000       0.00000000       0.00000000       0.00000000
H        1.40307756       4.05033604      12.29121606        2       1.00000000       0.00000000       0.00000000       0.00000000       0.00000000       0.00000000       0.00000000
H        4.20923268       4.05033604      12.29121606        2       1.00000000       0.00000000       0.00000000       0.00000000       0.00000000       0.00000000       0.00000000
H        0.00000000       0.00000000      14.58243212        1       1.00000000       0.00000000       0.00000000       0.00000000       0.00000000       0.00000000       0.00000000
H        2.80615512       0.00000000      14.58243212        1       1.00000000       0.00000000       0.00000000       0.00000000       0.00000000       0.00000000       0.00000000
H        1.40307756       2.43020162      14.58243212        1       1.00000000       0.00000000       0.00000000       0.00000000       0.00000000       0.00000000       0.00000000
H        4.20923268       2.43020162      14.58243212        1       1.00000000       0.00000000       0.00000000       0.00000000       0.00000000       0.00000000       0.00000000
H        1.40307717       4.05033578      16.81106515        0       1.00000000       0.00000134       0.00000052       0.00000013       0.00000445       0.00000152       0.00000340
H        5.61231137       0.00000093       7.77172751        0       1.00000000       0.00000033       0.00000000       0.00000052       0.00000023      -0.00000478       0.00000171
H        5.61230921       1.62013510      16.81106557        0       1.00000000       0.00000108       0.00000025      -0.00000083      -0.00000059       0.00000161       0.00000118
H        4.20923325       2.43020228       7.77172694        0       1.00000000      -0.00000082       0.00000243       0.00000270       0.00000038       0.00000363      -0.00000008
H        2.80615487       1.62013450      16.81106429        0       1.00000000      -0.00000109      -0.00000009       0.00000073       0.00000082      -0.00000013      -0.00000109
H        2.80615562       0.00000034       7.77172662        0       1.00000000       0.00000063       0.00000026       0.00000185       0.00000002      -0.00000175       0.00000141
H        4.20923222       4.05033612      16.81106441        0       1.00000000      -0.00000153      -0.00000202       0.00000016      -0.00000457      -0.00000157      -0.00000127
H        1.40307796       2.43020248       7.77172778        0       1.00000000      -0.00000041       0.00000193       0.00000001       0.00000074       0.00000040       0.00000357
20
Lattice="5.612310241546866 0.0 0.0 0.0 4.860403243099165 0.0 0.0 0.0 24.582432123328676" Properties=species:S:1:pos:R:3:tags:I:1:masses:R:1:momenta:R:3:forces:R:3 KEmax=25.851991011651638 iter=111329 volume=670.5618179858607 ns_energy=-13.620080613379193 last_walked_iter_clone=111119 energy=-13.620080613385904 stress="0.025725811057198643 6.6446719500721034e-09 1.1221698660992159e-08 6.6446719500721034e-09 0.02572582063513172 -3.5662576839767195e-08 1.1221698660992159e-08 -3.5662576839767195e-08 0.013287011701662058" pbc="T T F"
H        1.40307756       0.81006721      10.00000000        3       1.00000000       0.00000000       0.00000000       0.00000000       0.00000000       0.00000000       0.00000000
H        4.20923268       0.81006721      10.00000000        3       1.00000000       0.00000000       0.00000000       0.00000000       0.00000000       0.00000000       0.00000000
H        0.00000000       3.24026883      10.00000000        3       1.00000000       0.00000000       0.00000000       0.00000000       0.00000000       0.00000000       0.00000000
H        2.80615512       3.24026883      10.00000000        3       1.00000000       0.00000000       0.00000000       0.00000000       0.00000000       0.00000000       0.00000000
H        0.00000000       1.62013441      12.29121606        2       1.00000000       0.00000000       0.00000000       0.00000000       0.00000000       0.00000000       0.00000000
H        2.80615512       1.62013441      12.29121606        2       1.00000000       0.00000000       0.00000000       0.00000000       0.00000000       0.00000000       0.00000000
H        1.40307756       4.05033604      12.29121606        2       1.00000000       0.00000000       0.00000000       0.00000000       0.00000000       0.00000000       0.00000000
H        4.20923268       4.05033604      12.29121606        2       1.00000000       0.00000000       0.00000000       0.00000000       0.00000000       0.00000000       0.00000000
H        0.00000000       0.00000000      14.58243212        1       1.00000000       0.00000000       0.00000000       0.00000000       0.00000000       0.00000000       0.00000000
H        2.80615512       0.00000000      14.58243212        1       1.00000000       0.00000000       0.00000000       0.00000000       0.00000000       0.00000000       0.00000000
H        1.40307756       2.43020162      14.58243212        1       1.00000000       0.00000000       0.00000000       0.00000000       0.00000000       0.00000000       0.00000000
H        4.20923268       2.43020162      14.58243212        1       1.00000000       0.00000000       0.00000000       0.00000000       0.00000000       0.00000000       0.00000000
H        1.40307755       4.05033543      16.81106505        0       1.00000000       0.00000058       0.00000132       0.00000227       0.00000445       0.00000152       0.00000340
H        5.61230956      -0.00000070       7.77172645        0       1.00000000       0.00000016      -0.00000033       0.00000192       0.00000023      -0.00000478       0.00000171
H       -0.00000022       1.62013382      16.81106579        0       1.00000000      -0.00000068       0.00000088      -0.00000096      -0.00000059       0.00000161       0.00000118
H        4.20923270       2.43020113       7.77172702        0       1.00000000       0.00000191      -0.00000010      -0.00000007       0.00000038       0.00000363      -0.00000008
H        2.80615480       1.62013336      16.81106515        0       1.00000000      -0.00000059       0.00000080       0.00000017       0.00000082      -0.00000013      -0.00000109
H        2.80615528       0.00000039       7.77172614        0       1.00000000       0.00000102      -0.00000142       0.00000101       0.00000002      -0.00000175       0.00000141
H        4.20923362       4.05033604      16.81106476        0       1.00000000      -0.00000109      -0.00000030      -0.00000017      -0.00000457      -0.00000157      -0.00000127
H        1.40307768       2.43020228       7.77172551        0       1.00000000      -0.00000118      -0.00000016      -0.00000027       0.00000074       0.00000040       0.00000357
20
Lattice="5.612310241546866 0.0 0.0 0.0 4.860403243099165 0.0 0.0 0.0 24.582432123328676" Properties=species:S:1:pos:R:3:tags:I:1:masses:R:1:momenta:R:3:forces:R:3 KEmax=25.851991011651638 iter=111329 volume=670.5618179858607 ns_energy=-13.620080613379477 last_walked_iter_clone=111252 energy=-13.620080613385904 stress="0.025725811057198643 6.6446719500721034e-09 1.1221698660992159e-08 6.6446719500721034e-09 0.02572582063513172 -3.5662576839767195e-08 1.1221698660992159e-08 -3.5662576839767195e-08 0.013287011701662058" pbc="T T F"
H        1.40307756       0.81006721      10.00000000        3       1.00000000       0.00000000       0.00000000       0.00000000       0.00000000       0.00000000       0.00000000
H        4.20923268       0.81006721      10.00000000        3       1.00000000       0.00000000       0.00000000       0.00000000       0.00000000       0.00000000       0.00000000
H        0.00000000       3.24026883      10.00000000        3       1.00000000       0.00000000       0.00000000       0.00000000       0.00000000       0.00000000       0.00000000
H        2.80615512       3.24026883      10.00000000        3       1.00000000       0.00000000       0.00000000       0.00000000       0.00000000       0.00000000       0.00000000
H        0.00000000       1.62013441      12.29121606        2       1.00000000       0.00000000       0.00000000       0.00000000       0.00000000       0.00000000       0.00000000
H        2.80615512       1.62013441      12.29121606        2       1.00000000       0.00000000       0.00000000       0.00000000       0.00000000       0.00000000       0.00000000
H        1.40307756       4.05033604      12.29121606        2       1.00000000       0.00000000       0.00000000       0.00000000       0.00000000       0.00000000       0.00000000
H        4.20923268       4.05033604      12.29121606        2       1.00000000       0.00000000       0.00000000       0.00000000       0.00000000       0.00000000       0.00000000
H        0.00000000       0.00000000      14.58243212        1       1.00000000       0.00000000       0.00000000       0.00000000       0.00000000       0.00000000       0.00000000
H        2.80615512       0.00000000      14.58243212        1       1.00000000       0.00000000       0.00000000       0.00000000       0.00000000       0.00000000       0.00000000
H        1.40307756       2.43020162      14.58243212        1       1.00000000       0.00000000       0.00000000       0.00000000       0.00000000       0.00000000       0.00000000
H        4.20923268       2.43020162      14.58243212        1       1.00000000       0.00000000       0.00000000       0.00000000       0.00000000       0.00000000       0.00000000
H        1.40307873       4.05033591      16.81106469        0       1.00000000       0.00000093      -0.00000081       0.00000053       0.00000445       0.00000152       0.00000340
H        0.00000075       4.86040280       7.77172792        0       1.00000000       0.00000212      -0.00000029      -0.00000006       0.00000023      -0.00000478       0.00000171
H        0.00000120       1.62013386      16.81106410        0       1.00000000      -0.00000049      -0.00000062      -0.00000147      -0.00000059       0.00000161       0.00000118
H        4.20923294       2.43020094       7.77172814        0       1.00000000      -0.00000028      -0.00000172       0.00000065       0.00000038       0.00000363      -0.00000008
H        2.80615654       1.62013444      16.81106472        0       1.00000000       0.00000033      -0.00000048       0.00000266       0.00000082      -0.00000013      -0.00000109
H        2.80615589       4.86040141       7.77172686        0       1.00000000       0.00000152       0.00000012      -0.00000023       0.00000002      -0.00000175       0.00000141
H        4.20923364       4.05033516      16.81106516        0       1.00000000       0.00000117       0.00000109      -0.00000068      -0.00000457      -0.00000157      -0.00000127
H        1.40307817       2.43020076       7.77172732        0       1.00000000      -0.00000013       0.00000107       0.00000097       0.00000074       0.00000040       0.00000357
20
Lattice="5.612310241546866 0.0 0.0 0.0 4.860403243099165 0.0 0.0 0.0 24.582432123328676" Properties=species:S:1:pos:R:3:tags:I:1:masses:R:1:momenta:R:3:forces:R:3 KEmax=25.851991011651638 iter=111329 volume=670.5618179858607 ns_energy=-13.62008061337957 last_walked_iter_clone=111096 energy=-13.620080613385904 stress="0.025725811057198643 6.6446719500721034e-09 1.1221698660992159e-08 6.6446719500721034e-09 0.02572582063513172 -3.5662576839767195e-08 1.1221698660992159e-08 -3.5662576839767195e-08 0.013287011701662058" pbc="T T F"
H        1.40307756       0.81006721      10.00000000        3       1.00000000       0.00000000       0.00000000       0.00000000       0.00000000       0.00000000       0.00000000
H        4.20923268       0.81006721      10.00000000        3       1.00000000       0.00000000       0.00000000       0.00000000       0.00000000       0.00000000       0.00000000
H        0.00000000       3.24026883      10.00000000        3       1.00000000       0.00000000       0.00000000       0.00000000       0.00000000       0.00000000       0.00000000
H        2.80615512       3.24026883      10.00000000        3       1.00000000       0.00000000       0.00000000       0.00000000       0.00000000       0.00000000       0.00000000
H        0.00000000       1.62013441      12.29121606        2       1.00000000       0.00000000       0.00000000       0.00000000       0.00000000       0.00000000       0.00000000
H        2.80615512       1.62013441      12.29121606        2       1.00000000       0.00000000       0.00000000       0.00000000       0.00000000       0.00000000       0.00000000
H        1.40307756       4.05033604      12.29121606        2       1.00000000       0.00000000       0.00000000       0.00000000       0.00000000       0.00000000       0.00000000
H        4.20923268       4.05033604      12.29121606        2       1.00000000       0.00000000       0.00000000       0.00000000       0.00000000       0.00000000       0.00000000
H        0.00000000       0.00000000      14.58243212        1       1.00000000       0.00000000       0.00000000       0.00000000       0.00000000       0.00000000       0.00000000
H        2.80615512       0.00000000      14.58243212        1       1.00000000       0.00000000       0.00000000       0.00000000       0.00000000       0.00000000       0.00000000
H        1.40307756       2.43020162      14.58243212        1       1.00000000       0.00000000       0.00000000       0.00000000       0.00000000       0.00000000       0.00000000
H        4.20923268       2.43020162      14.58243212        1       1.00000000       0.00000000       0.00000000       0.00000000       0.00000000       0.00000000       0.00000000
H        1.40307790       4.05033603      16.81106482        0       1.00000000       0.00000180      -0.00000075      -0.00000152       0.00000445       0.00000152       0.00000340
H        5.61231133       4.86040271       7.77172586        0       1.00000000       0.00000013       0.00000053       0.00000064       0.00000023      -0.00000478       0.00000171
H       -0.00000001       1.62013398      16.81106423        0       1.00000000      -0.00000057      -0.00000030      -0.00000062      -0.00000059       0.00000161       0.00000118
H        4.20923409       2.43020180       7.77172863        0       1.00000000       0.00000098      -0.00000001      -0.00000082       0.00000038       0.00000363      -0.00000008
H        2.80615478       1.62013367      16.81106529        0       1.00000000       0.00000098      -0.00000006      -0.00000149       0.00000082      -0.00000013      -0.00000109
H        2.80615635       4.86040296       7.77172661        0       1.00000000      -0.00000025      -0.00000094      -0.00000218       0.00000002      -0.00000175       0.00000141
H        4.20923269       4.05033538      16.81106506        0       1.00000000       0.00000011       0.00000006       0.00000118      -0.00000457      -0.00000157      -0.00000127
H        1.40307795       2.43020184       7.77172773        0       1.00000000      -0.00000075      -0.00000201       0.00000094       0.00000074       0.00000040       0.00000357
20
Lattice="5.612310241546866 0.0 0.0 0.0 4.860403243099165 0.0 0.0 0.0 24.582432123328676" Properties=species:S:1:pos:R:3:tags:I:1:masses:R:1:momenta:R:3:forces:R:3 KEmax=25.851991011651638 iter=111329 volume=670.5618179858607 ns_energy=-13.620080613379194 last_walked_iter_clone=110695 energy=-13.620080613385904 stress="0.025725811057198643 6.6446719500721034e-09 1.1221698660992159e-08 6.6446719500721034e-09 0.02572582063513172 -3.5662576839767195e-08 1.1221698660992159e-08 -3.5662576839767195e-08 0.013287011701662058" pbc="T T F"
H        1.40307756       0.81006721      10.00000000        3       1.00000000       0.00000000       0.00000000       0.00000000       0.00000000       0.00000000       0.00000000