15
Lattice="5.612310241546866 0.0 0.0 0.0 4.860403243099165 0.0 0.0 0.0 44.58243212332868" Properties=species:S:1:pos:R:3:tags:I:1:masses:R:1:momenta:R:3:forces:R:3 KEmax=19.38899325873873 iter=100127 volume=1216.1236359717223 set_wall=T ns_energy=-9.39953853197822 last_walked_iter_clone=97023 energy=-9.39953850286615 stress="0.024327506195833456 9.493327687760171e-10 -1.3542886803237994e-09 9.493327687760171e-10 0.02449704086416809 1.9611065443625687e-09 -1.3542886803237994e-09 1.9611065443625687e-09 0.01447769667464486" pbc="T T F"
H        1.40307756       0.81006721      20.00000000        3       1.00000000       0.00000000       0.00000000       0.00000000       0.00000000       0.00000000       0.00000000
H        4.20923268       0.81006721      20.00000000        3       1.00000000       0.00000000       0.00000000       0.00000000       0.00000000       0.00000000       0.00000000
H        0.00000000       3.24026883      20.00000000        3       1.00000000       0.00000000       0.00000000       0.00000000       0.00000000       0.00000000       0.00000000
H        2.80615512       3.24026883      20.00000000        3       1.00000000       0.00000000       0.00000000       0.00000000       0.00000000       0.00000000       0.00000000
H        0.00000000       1.62013441      22.29121606        2       1.00000000       0.00000000       0.00000000       0.00000000       0.00000000       0.00000000       0.00000000
H        2.80615512       1.62013441      22.29121606        2       1.00000000       0.00000000       0.00000000       0.00000000       0.00000000       0.00000000       0.00000000
H        1.40307756       4.05033604      22.29121606        2       1.00000000       0.00000000       0.00000000       0.00000000       0.00000000       0.00000000       0.00000000
H        4.20923268       4.05033604      22.29121606        2       1.00000000       0.00000000       0.00000000       0.00000000       0.00000000       0.00000000       0.00000000
H        0.00000000       0.00000000      24.58243212        1       1.00000000       0.00000000       0.00000000       0.00000000       0.00000000       0.00000000       0.00000000
H        2.80615512       0.00000000      24.58243212        1       1.00000000       0.00000000       0.00000000       0.00000000       0.00000000       0.00000000       0.00000000
H        1.40307756       2.43020162      24.58243212        1       1.00000000       0.00000000       0.00000000       0.00000000       0.00000000       0.00000000       0.00000000
H        4.20923268       2.43020162      24.58243212        1       1.00000000       0.00000000       0.00000000       0.00000000       0.00000000       0.00000000       0.00000000
H        2.80311102       1.62012495      26.81107096        0       1.00000000       0.00000039       0.00000048       0.00000089      -0.00000104       0.00021174       0.00000335
H        0.00304183       1.62012567      26.81107057        0       1.00000000       0.00000012      -0.00000069      -0.00000088       0.00000170       0.00021169      -0.00000287
H        4.20923222       4.05032856      26.81106477        0       1.00000000      -0.00000050      -0.00000011      -0.00000022      -0.00000054      -0.00042364       0.00000020
15
Lattice="5.612310241546866 0.0 0.0 0.0 4.860403243099165 0.0 0.0 0.0 44.58243212332868" Properties=species:S:1:pos:R:3:tags:I:1:masses:R:1:momenta:R:3:forces:R:3 KEmax=19.38899325873873 iter=100127 volume=1216.1236359717223 set_wall=T ns_energy=-9.399538531978196 last_walked_iter_clone=98876 energy=-9.39953850286615 stress="0.024327506195833456 9.493327687760171e-10 -1.3542886803237994e-09 9.493327687760171e-10 0.02449704086416809 1.9611065443625687e-09 -1.3542886803237994e-09 1.9611065443625687e-09 0.01447769667464486" pbc="T T F"
H        1.40307756       0.81006721      20.00000000        3       1.00000000       0.00000000       0.00000000       0.00000000       0.00000000       0.00000000       0.00000000
H        4.20923268       0.81006721      20.00000000        3       1.00000000       0.00000000       0.00000000       0.00000000       0.00000000       0.00000000       0.00000000
H        0.00000000       3.24026883      20.00000000        3       1.00000000       0.00000000       0.00000000       0.00000000       0.00000000       0.00000000       0.00000000
H        2.80615512       3.24026883      20.00000000        3       1.00000000       0.00000000       0.00000000       0.00000000       0.00000000       0.00000000       0.00000000
H        0.00000000       1.62013441      22.29121606        2       1.00000000       0.00000000       0.00000000       0.00000000       0.00000000       0.00000000       0.00000000
H        2.80615512       1.62013441      22.29121606        2       1.00000000       0.00000000       0.00000000       0.00000000       0.00000000       0.00000000       0.00000000
H        1.40307756       4.05033604      22.29121606        2       1.00000000       0.00000000       0.00000000       0.00000000       0.00000000       0.00000000       0.00000000
H        4.20923268       4.05033604      22.29121606        2       1.00000000       0.00000000       0.00000000       0.00000000       0.00000000       0.00000000       0.00000000
H        0.00000000       0.00000000      24.58243212        1       1.00000000       0.00000000       0.00000000       0.00000000       0.00000000       0.00000000       0.00000000
H        2.80615512       0.00000000      24.58243212        1       1.00000000       0.00000000       0.00000000       0.00000000       0.00000000       0.00000000       0.00000000
H        1.40307756       2.43020162      24.58243212        1       1.00000000       0.00000000       0.00000000       0.00000000       0.00000000       0.00000000       0.00000000
H        4.20923268       2.43020162      24.58243212        1       1.00000000       0.00000000       0.00000000       0.00000000       0.00000000       0.00000000       0.00000000
H        2.80311224       1.62012397      26.81107076        0       1.00000000      -0.00000018       0.00000022       0.00000045      -0.00000104       0.00021174       0.00000335
H        0.00304274       1.62012529      26.81107140        0       1.00000000       0.00000105       0.00000050       0.00000023       0.00000170       0.00021169      -0.00000287
H        4.20923360       4.05032783      26.81106539        0       1.00000000       0.00000019      -0.00000057       0.00000079      -0.00000054      -0.00042364       0.00000020
15
Lattice="5.612310241546866 0.0 0.0 0.0 4.860403243099165 0.0 0.0 0.0 44.58243212332868" Properties=species:S:1:pos:R:3:tags:I:1:masses:R:1:momenta:R:3:forces:R:3 KEmax=19.38899325873873 iter=100127 volume=1216.1236359717223 set_wall=T ns_energy=-9.399538531978244 last_walked_iter_clone=90436 energy=-9.39953850286615 stress="0.024327506195833456 9.493327687760171e-10 -1.3542886803237994e-09 9.493327687760171e-10 0.02449704086416809 1.9611065443625687e-09 -1.3542886803237994e-09 1.9611065443625687e-09 0.01447769667464486" pbc="T T F"
H        1.40307756       0.81006721      20.00000000        3       1.00000000       0.00000000       0.00000000       0.00000000       0.00000000       0.00000000       0.00000000
H        4.20923268       0.81006721      20.00000000        3       1.00000000       0.00000000       0.00000000       0.00000000       0.00000000       0.00000000       0.00000000
H        0.00000000       3.24026883      20.00000000        3       1.00000000       0.00000000       0.00000000       0.00000000       0.00000000       0.00000000       0.00000000
H        2.80615512       3.24026883      20.00000000        3       1.00000000       0.00000000       0.00000000       0.00000000       0.00000000       0.00000000       0.00000000
H        0.00000000       1.62013441      22.29121606        2       1.00000000       0.00000000       0.00000000       0.00000000       0.00000000       0.00000000       0.00000000
H        2.80615512       1.62013441      22.29121606        2       1.00000000       0.00000000       0.00000000       0.00000000       0.00000000       0.00000000       0.00000000
H        1.40307756       4.05033604      22.29121606        2       1.00000000       0.00000000       0.00000000       0.00000000       0.00000000       0.00000000       0.00000000
H        4.20923268       4.05033604      22.29121606        2       1.00000000       0.00000000       0.00000000       0.00000000       0.00000000       0.00000000       0.00000000
H        0.00000000       0.00000000      24.58243212        1       1.00000000       0.00000000       0.00000000       0.00000000       0.00000000       0.00000000       0.00000000
H        2.80615512       0.00000000      24.58243212        1       1.00000000       0.00000000       0.00000000       0.00000000       0.00000000       0.00000000       0.00000000
H        1.40307756       2.43020162      24.58243212        1       1.00000000       0.00000000       0.00000000       0.00000000       0.00000000       0.00000000       0.00000000
H        4.20923268       2.43020162      24.58243212        1       1.00000000       0.00000000       0.00000000       0.00000000       0.00000000       0.00000000       0.00000000
H        2.80311239       1.62012495      26.81107078        0       1.00000000      -0.00000018       0.00000069       0.00000026      -0.00000104       0.00021174       0.00000335
H        0.00304301       1.62012498      26.81107156        0       1.00000000       0.00000073      -0.00000123       0.00000046       0.00000170       0.00021169      -0.00000287
H        4.20923292       4.05032816      26.81106496        0       1.00000000       0.00000005      -0.00000055      -0.00000159      -0.00000054      -0.00042364       0.00000020
15
Lattice="5.612310241546866 0.0 0.0 0.0 4.860403243099165 0.0 0.0 0.0 44.58243212332868" Properties=species:S:1:pos:R:3:tags:I:1:masses:R:1:momenta:R:3:forces:R:3 KEmax=19.38899325873873 iter=100127 volume=1216.1236359717223 set_wall=T ns_energy=-9.399538531978287 last_walked_iter_clone=94164 energy=-9.39953850286615 stress="0.024327506195833456 9.493327687760171e-10 -1.3542886803237994e-09 9.493327687760171e-10 0.02449704086416809 1.9611065443625687e-09 -1.3542886803237994e-09 1.9611065443625687e-09 0.01447769667464486" pbc="T T F"
H        1.40307756       0.81006721      20.00000000        3       1.00000000       0.00000000       0.00000000       0.00000000       0.00000000       0.00000000       0.00000000
H        4.20923268       0.81006721      20.00000000        3       1.00000000       0.00000000       0.00000000       0.00000000       0.00000000       0.00000000       0.00000000
H        0.00000000       3.24026883      20.00000000        3       1.00000000       0.00000000       0.00000000       0.00000000       0.00000000       0.00000000       0.00000000
H        2.80615512       3.24026883      20.00000000        3       1.00000000       0.00000000       0.00000000       0.00000000       0.00000000       0.00000000       0.00000000
H        0.00000000       1.62013441      22.29121606        2       1.00000000       0.00000000       0.00000000       0.00000000       0.00000000       0.00000000       0.00000000
H        2.80615512       1.62013441      22.29121606        2       1.00000000       0.00000000       0.00000000       0.00000000       0.00000000       0.00000000       0.00000000
H        1.40307756       4.05033604      22.29121606        2       1.00000000       0.00000000       0.00000000       0.00000000       0.00000000       0.00000000       0.00000000
H        4.20923268       4.05033604      22.29121606        2       1.00000000       0.00000000       0.00000000       0.00000000       0.00000000       0.00000000       0.00000000
H        0.00000000       0.00000000      24.58243212        1       1.00000000       0.00000000       0.00000000       0.00000000       0.00000000       0.00000000       0.00000000
H        2.80615512       0.00000000      24.58243212        1       1.00000000       0.00000000       0.00000000       0.00000000       0.00000000       0.00000000       0.00000000
H        1.40307756       2.43020162      24.58243212        1       1.00000000       0.00000000       0.00000000       0.00000000       0.00000000       0.00000000       0.00000000
H        4.20923268       2.43020162      24.58243212        1       1.00000000       0.00000000       0.00000000       0.00000000       0.00000000       0.00000000       0.00000000
H        2.80311162       1.62012436      26.81107114        0       1.00000000      -0.00000096       0.00000038      -0.00000001      -0.00000104       0.00021174       0.00000335
H        0.00304224       1.62012467      26.81107123        0       1.00000000      -0.00000089      -0.00000076       0.00000019       0.00000170       0.00021169      -0.00000287
H        4.20923201       4.05032795      26.81106476        0       1.00000000       0.00000151       0.00000074       0.00000055      -0.00000054      -0.00042364       0.00000020
15
Lattice="5.612310241546866 0.0 0.0 0.0 4.860403243099165 0.0 0.0 0.0 44.58243212332868" Properties=species:S:1:pos:R:3:tags:I:1:masses:R:1:momenta:R:3:forces:R:3 KEmax=19.38899325873873 iter=100127 volume=1216.1236359717223 set_wall=T ns_energy=-9.399538531978289 last_walked_iter_clone=93451 energy=-9.39953850286615 stress="0.024327506195833456 9.493327687760171e-10 -1.3542886803237994e-09 9.493327687760171e-10 0.02449704086416809 1.9611065443625687e-09 -1.3542886803237994e-09 1.9611065443625687e-09 0.01447769667464486" pbc="T T F"
H        1.40307756       0.81006721      20.00000000        3       1.00000000       0.00000000       0.00000000       0.00000000       0.00000000       0.00000000       0.00000000
H        4.20923268       0.81006721      20.00000000        3       1.00000000       0.00000000       0.00000000       0.00000000       0.00000000       0.00000000       0.00000000
H        0.00000000       3.24026883      20.00000000        3       1.00000000       0.00000000       0.00000000       0.00000000       0.00000000       0.00000000       0.00000000
H        2.80615512       3.24026883      20.00000000        3       1.00000000       0.00000000       0.00000000       0.00000000       0.00000000       0.00000000       0.00000000
H        0.00000000       1.62013441      22.29121606        2       1.00000000       0.00000000       0.00000000       0.00000000       0.00000000       0.00000000       0.00000000
H        2.80615512       1.62013441      22.29121606        2       1.00000000       0.00000000       0.00000000       0.00000000       0.00000000       0.00000000       0.00000000
H        1.40307756       4.05033604      22.29121606        2       1.00000000       0.00000000       0.00000000       0.00000000       0.00000000       0.00000000       0.00000000
H        4.20923268       4.05033604      22.29121606        2       1.00000000       0.00000000       0.00000000       0.00000000       0.00000000       0.00000000       0.00000000
H        0.00000000       0.00000000      24.58243212        1       1.00000000       0.00000000       0.00000000       0.00000000       0.00000000       0.00000000       0.00000000
H        2.80615512       0.00000000      24.58243212        1       1.00000000       0.00000000       0.00000000       0.00000000       0.00000000       0.00000000       0.00000000
H        1.40307756       2.43020162      24.58243212        1       1.00000000       0.00000000       0.00000000       0.00000000       0.00000000       0.00000000       0.00000000
H        4.20923268       2.43020162      24.58243212        1       1.00000000       0.00000000       0.00000000       0.00000000       0.00000000       0.00000000       0.00000000
H        2.80311319       1.62012490      26.81107135        0       1.00000000      -0.00000004      -0.00000012      -0.00000004      -0.00000104       0.00021174       0.00000335
H        0.00304353       1.62012451      26.81107123        0       1.00000000       0.00000006       0.00000075      -0.00000060       0.00000170       0.00021169      -0.00000287
H        4.20923312       4.05032795      26.81106496        0       1.00000000      -0.00000148       0.00000138       0.00000014      -0.00000054      -0.00042364       0.00000020
15
Lattice="5.612310241546866 0.0 0.0 0.0 4.860403243099165 0.0 0.0 0.0 44.58243212332868" Properties=species:S:1:pos:R:3:tags:I:1:masses:R:1:momenta:R:3:forces:R:3 KEmax=19.38899325873873 iter=100127 volume=1216.1236359717223 set_wall=T ns_energy=-9.399538531978756 last_walked_iter_clone=97027 energy=-9.39953850286615 stress="0.024327506195833456 9.493327687760171e-10 -1.3542886803237994e-09 9.493327687760171e-10 0.02449704086416809 1.9611065443625687e-09 -1.3542886803237994e-09 1.9611065443625687e-09 0.01447769667464486" pbc="T T F"
H        1.40307756       0.81006721      20.00000000        3       1.00000000       0.00000000       0.00000000       0.00000000       0.00000000       0.00000000       0.00000000
H        4.20923268       0.81006721      20.00000000        3       1.00000000       0.00000000       0.00000000       0.00000000       0.00000000       0.00000000       0.00000000
H        0.00000000       3.24026883      20.00000000        3       1.00000000       0.00000000       0.00000000       0.00000000       0.00000000       0.00000000       0.00000000
H        2.80615512       3.24026883      20.00000000        3       1.00000000       0.00000000       0.00000000       0.00000000       0.00000000       0.00000000       0.00000000
H        0.00000000       1.62013441      22.29121606        2       1.00000000       0.00000000       0.00000000       0.00000000       0.00000000       0.00000000       0.00000000
H        2.80615512       1.62013441      22.29121606        2       1.00000000       0.00000000       0.00000000       0.00000000       0.00000000       0.00000000       0.00000000
H        1.40307756       4.05033604      22.29121606        2       1.00000000       0.00000000       0.00000000       0.00000000       0.00000000       0.00000000       0.00000000
H        4.20923268       4.05033604      22.29121606        2       1.00000000       0.00000000       0.00000000       0.00000000       0.00000000       0.00000000       0.00000000
H        0.00000000       0.00000000      24.58243212        1       1.00000000       0.00000000       0.00000000       0.00000000       0.00000000       0.00000000       0.00000000
H        2.80615512       0.00000000      24.58243212        1       1.00000000       0.00000000       0.00000000       0.00000000       0.00000000       0.00000000       0.00000000
H        1.40307756       2.43020162      24.58243212        1       1.00000000       0.00000000       0.00000000       0.00000000       0.00000000       0.00000000       0.00000000
H        4.20923268       2.43020162      24.58243212        1       1.00000000       0.00000000       0.00000000       0.00000000       0.00000000       0.00000000       0.00000000
H        2.80311217       1.62012521      26.81107099        0       1.00000000      -0.00000032      -0.00000044      -0.00000014      -0.00000104       0.00021174       0.00000335
H        0.00304321       1.62012423      26.81107095        0       1.00000000      -0.00000035      -0.00000025       0.00000143       0.00000170       0.00021169      -0.00000287
H        4.20923307       4.05032828      26.81106495        0       1.00000000       0.00000037       0.00000014       0.00000118      -0.00000054      -0.00042364       0.00000020
15
Lattice="5.612310241546866 0.0 0.0 0.0 4.860403243099165 0.0 0.0 0.0 44.58243212332868" Properties=species:S:1:pos:R:3:tags:I:1:masses:R:1:momenta:R:3:forces:R:3 KEmax=19.38899325873873 iter=100127 volume=1216.1236359717223 set_wall=T ns_energy=-9.399538531978394 last_walked_iter_clone=97912 energy=-9.39953850286615 stress="0.024327506195833456 9.493327687760171e-10 -1.3542886803237994e-09 9.493327687760171e-10 0.02449704086416809 1.9611065443625687e-09 -1.3542886803237994e-09 1.9611065443625687e-09 0.01447769667464486" pbc="T T F"
H        1.40307756       0.81006721      20.00000000        3       1.00000000       0.00000000       0.00000000       0.00000000       0.00000000       0.00000000       0.00000000
H        4.20923268       0.81006721      20.00000000        3       1.00000000       0.00000000       0.00000000       0.00000000       0.00000000       0.00000000       0.00000000
H        0.00000000       3.24026883      20.00000000        3       1.00000000       0.00000000       0.00000000       0.00000000       0.00000000       0.00000000       0.00000000
H        2.80615512       3.24026883      20.00000000        3       1.00000000       0.00000000       0.00000000       0.00000000       0.00000000       0.00000000       0.00000000
H        0.00000000       1.62013441      22.29121606        2       1.00000000       0.00000000       0.00000000       0.00000000       0.00000000       0.00000000       0.00000000
H        2.80615512       1.62013441      22.29121606        2       1.00000000       0.00000000       0.00000000       0.00000000       0.00000000       0.00000000       0.00000000
H        1.40307756       4.05033604      22.29121606        2       1.00000000       0.00000000       0.00000000       0.00000000       0.00000000       0.00000000       0.00000000
H        4.20923268       4.05033604      22.29121606        2       1.00000000       0.00000000       0.00000000       0.00000000       0.00000000       0.00000000       0.00000000
H        0.00000000       0.00000000      24.58243212        1       1.00000000       0.00000000       0.00000000       0.00000000       0.00000000       0.00000000       0.00000000
H        2.80615512       0.00000000      24.58243212        1       1.00000000       0.00000000       0.00000000       0.00000000       0.00000000       0.00000000       0.00000000
H        1.40307756       2.43020162      24.58243212        1       1.00000000       0.00000000       0.00000000       0.00000000       0.00000000       0.00000000       0.00000000
H        4.20923268       2.43020162      24.58243212        1       1.00000000       0.00000000       0.00000000       0.00000000       0.00000000       0.00000000       0.00000000
H        2.80311191       1.62012458      26.81107092        0       1.00000000      -0.00000030      -0.00000043       0.00000006      -0.00000104       0.00021174       0.00000335
H        0.00304239       1.62012534      26.81107167        0       1.00000000      -0.00000058       0.00000141       0.00000101       0.00000170       0.00021169      -0.00000287
H        4.20923285       4.05032824      26.81106509        0       1.00000000       0.00000085       0.00000005      -0.00000021      -0.00000054      -0.00042364       0.00000020
15
Lattice="5.612310241546866 0.0 0.0 0.0 4.860403243099165 0.0 0.0 0.0 44.58243212332868" Properties=species:S:1:pos:R:3:tags:I:1:masses:R:1:momenta:R:3:forces:R:3 KEmax=19.38899325873873 iter=100127 volume=1216.1236359717223 set_wall=T ns_energy=-9.399538531978257 last_walked_iter_clone=90238 energy=-9.39953850286615 stress="0.024327506195833456 9.493327687760171e-10 -1.3542886803237994e-09 9.493327687760171e-10 0.02449704086416809 1.9611065443625687e-09 -1.3542886803237994e-09 1.9611065443625687e-09 0.01447769667464486" pbc="T T F"
H        1.40307756       0.81006721      20.00000000        3       1.00000000       0.00000000       0.00000000       0.00000000       0.00000000       0.00000000       0.00000000
H        4.20923268       0.81006721      20.00000000        3       1.00000000       0.00000000       0.00000000       0.00000000       0.00000000       0.00000000       0.00000000
H        0.00000000       3.24026883      20.00000000        3       1.00000000       0.00000000       0.00000000       0.00000000       0.00000000       0.00000000       0.00000000
H        2.80615512       3.24026883      20.00000000        3       1.00000000       0.00000000       0.00000000       0.00000000       0.00000000       0.00000000       0.00000000
H        0.00000000       1.62013441      22.29121606        2       1.00000000       0.00000000       0.00000000       0.00000000       0.00000000       0.00000000       0.00000000
H        2.80615512       1.62013441      22.29121606        2       1.00000000       0.00000000       0.00000000       0.00000000       0.00000000       0.00000000       0.00000000
H        1.40307756       4.05033604      22.29121606        2       1.00000000       0.00000000       0.00000000       0.00000000       0.00000000       0.00000000       0.00000000
H        4.20923268       4.05033604      22.29121606        2       1.00000000       0.00000000       0.00000000       0.00000000       0.00000000       0.00000000       0.00000000
H        0.00000000       0.00000000      24.58243212        1       1.00000000       0.00000000       0.00000000       0.00000000       0.00000000       0.00000000       0.00000000
H        2.80615512       0.00000000      24.58243212        1       1.00000000       0.00000000       0.00000000       0.00000000       0.00000000       0.00000000       0.00000000
H        1.40307756       2.43020162      24.58243212        1       1.00000000       0.00000000       0.00000000       0.00000000       0.00000000       0.00000000       0.00000000
H        4.20923268       2.43020162      24.58243212        1       1.00000000       0.00000000       0.00000000       0.00000000       0.00000000       0.00000000       0.00000000
H        2.80311246       1.62012495      26.81107074        0       1.00000000       0.00000062       0.00000004      -0.00000097      -0.00000104       0.00021174       0.00000335
H        0.00304344       1.62012472      26.81107116        0       1.00000000      -0.00000053      -0.00000100       0.00000065       0.00000170       0.00021169      -0.00000287
H        4.20923263       4.05032846      26.81106536        0       1.00000000       0.00000017      -0.00000000       0.00000141      -0.00000054      -0.00042364       0.00000020
15
Lattice="5.612310241546866 0.0 0.0 0.0 4.860403243099165 0.0 0.0 0.0 44.58243212332868" Properties=species:S:1:pos:R:3:tags:I:1:masses:R:1:momenta:R:3:forces:R:3 KEmax=19.38899325873873 iter=100127 volume=1216.1236359717223 set_wall=T ns_energy=-9.399538531978234 last_walked_iter_clone=90105 energy=-9.39953850286615 stress="0.024327506195833456 9.493327687760171e-10 -1.3542886803237994e-09 9.493327687760171e-10 0.02449704086416809 1.9611065443625687e-09 -1.3542886803237994e-09 1.9611065443625687e-09 0.01447769667464486" pbc="T T F"
H        1.40307756       0.81006721      20.00000000        3       1.00000000       0.00000000       0.00000000       0.00000000       0.00000000       0.00000000       0.00000000
H        4.20923268       0.81006721      20.00000000        3       1.00000000       0.00000000       0.00000000       0.00000000       0.00000000       0.00000000       0.00000000
H        0.00000000       3.24026883      20.00000000        3       1.00000000       0.00000000       0.00000000       0.00000000       0.00000000       0.00000000       0.00000000
H        2.80615512       3.24026883      20.00000000        3       1.00000000       0.00000000       0.00000000       0.00000000       0.00000000       0.00000000       0.00000000
H        0.00000000       1.62013441      22.29121606        2       1.00000000       0.00000000       0.00000000       0.00000000       0.00000000       0.00000000       0.00000000
H        2.80615512       1.62013441      22.29121606        2       1.00000000       0.00000000       0.00000000       0.00000000       0.00000000       0.00000000       0.00000000
H        1.40307756       4.05033604      22.29121606        2       1.00000000       0.00000000       0.00000000       0.00000000       0.00000000       0.00000000       0.00000000
H        4.20923268       4.05033604      22.29121606        2       1.00000000       0.00000000       0.00000000       0.00000000       0.00000000       0.00000000       0.00000000
H        0.00000000       0.00000000      24.58243212        1       1.00000000       0.00000000       0.00000000       0.00000000       0.00000000       0.00000000       0.00000000
H        2.80615512       0.00000000      24.58243212        1       1.00000000       0.00000000       0.00000000       0.00000000       0.00000000       0.00000000       0.00000000
H        1.40307756       2.43020162      24.58243212        1       1.00000000       0.00000000       0.00000000       0.00000000       0.00000000       0.00000000       0.00000000
H        4.20923268       2.43020162      24.58243212        1       1.00000000       0.00000000       0.00000000       0.00000000       0.00000000       0.00000000       0.00000000
H        2.80311155       1.62012599      26.81107086        0       1.00000000       0.00000031      -0.00000067      -0.00000022      -0.00000104       0.00021174       0.00000335
H        0.00304242       1.62012456      26.81107106        0       1.00000000      -0.00000018       0.00000073      -0.00000059       0.00000170       0.00021169      -0.00000287
H        4.20923174       4.05032843      26.81106485        0       1.00000000      -0.00000052       0.00000006       0.00000096      -0.00000054      -0.00042364       0.00000020
15
Lattice="5.612310241546866 0.0 0.0 0.0 4.860403243099165 0.0 0.0 0.0 44.58243212332868" Properties=species:S:1:pos:R:3:tags:I:1:masses:R:1:momenta:R:3:forces:R:3 KEmax=19.38899325873873 iter=100127 volume=1216.1236359717223 set_wall=T ns_energy=-9.399538531978262 last_walked_iter_clone=96950 energy=-9.39953850286615 stress="0.024327506195833456 9.493327687760171e-10 -1.3542886803237994e-09 9.493327687760171e-10 0.02449704086416809 1.9611065443625687e-09 -1.3542886803237994e-09 1.9611065443625687e-09 0.01447769667464486" pbc="T T F"