15
Lattice="5.612310241546866 0.0 0.0 0.0 4.860403243099165 0.0 0.0 0.0 44.58243212332868" Properties=species:S:1:pos:R:3:tags:I:1:masses:R:1:momenta:R:3:forces:R:3 KEmax=19.38899325873873 iter=77615 volume=1216.1236359717223 set_wall=T ns_energy=-9.399538531977718 last_walked_iter_clone=75529 energy=-9.399538512280472 stress="0.024327627360305283 6.6192317349977675e-09 -1.736277088024755e-08 6.6192317349977675e-09 0.024497551070779135 1.3727713641223744e-08 -1.736277088024755e-08 1.3727713641223744e-08 0.014477685125624851" pbc="T T F"
H        1.40307756       0.81006721      20.00000000        3       1.00000000       0.00000000       0.00000000       0.00000000       0.00000000       0.00000000       0.00000000
H        4.20923268       0.81006721      20.00000000        3       1.00000000       0.00000000       0.00000000       0.00000000       0.00000000       0.00000000       0.00000000
H        0.00000000       3.24026883      20.00000000        3       1.00000000       0.00000000       0.00000000       0.00000000       0.00000000       0.00000000       0.00000000
H        2.80615512       3.24026883      20.00000000        3       1.00000000       0.00000000       0.00000000       0.00000000       0.00000000       0.00000000       0.00000000
H        0.00000000       1.62013441      22.29121606        2       1.00000000       0.00000000       0.00000000       0.00000000       0.00000000       0.00000000       0.00000000
H        2.80615512       1.62013441      22.29121606        2       1.00000000       0.00000000       0.00000000       0.00000000       0.00000000       0.00000000       0.00000000
H        1.40307756       4.05033604      22.29121606        2       1.00000000       0.00000000       0.00000000       0.00000000       0.00000000       0.00000000       0.00000000
H        4.20923268       4.05033604      22.29121606        2       1.00000000       0.00000000       0.00000000       0.00000000       0.00000000       0.00000000       0.00000000
H        0.00000000       0.00000000      24.58243212        1       1.00000000       0.00000000       0.00000000       0.00000000       0.00000000       0.00000000       0.00000000
H        2.80615512       0.00000000      24.58243212        1       1.00000000       0.00000000       0.00000000       0.00000000       0.00000000       0.00000000       0.00000000
H        1.40307756       2.43020162      24.58243212        1       1.00000000       0.00000000       0.00000000       0.00000000       0.00000000       0.00000000       0.00000000
H        4.20923268       2.43020162      24.58243212        1       1.00000000       0.00000000       0.00000000       0.00000000       0.00000000       0.00000000       0.00000000
H        2.80311197       1.62012470      26.81107122        0       1.00000000       0.00000112      -0.00000158      -0.00000085       0.00011253       0.00016112      -0.00000355
H        0.00304250       1.62012452      26.81107155        0       1.00000000      -0.00000140      -0.00000009       0.00000009      -0.00011226       0.00016150       0.00000469
H        4.20923254       4.05032794      26.81106496        0       1.00000000       0.00000050       0.00000010      -0.00000070       0.00000117      -0.00032381       0.00000056
15
Lattice="5.612310241546866 0.0 0.0 0.0 4.860403243099165 0.0 0.0 0.0 44.58243212332868" Properties=species:S:1:pos:R:3:tags:I:1:masses:R:1:momenta:R:3:forces:R:3 KEmax=19.38899325873873 iter=77615 volume=1216.1236359717223 set_wall=T ns_energy=-9.399538531977914 last_walked_iter_clone=76012 energy=-9.399538512280472 stress="0.024327627360305283 6.6192317349977675e-09 -1.736277088024755e-08 6.6192317349977675e-09 0.024497551070779135 1.3727713641223744e-08 -1.736277088024755e-08 1.3727713641223744e-08 0.014477685125624851" pbc="T T F"
H        1.40307756       0.81006721      20.00000000        3       1.00000000       0.00000000       0.00000000       0.00000000       0.00000000       0.00000000       0.00000000
H        4.20923268       0.81006721      20.00000000        3       1.00000000       0.00000000       0.00000000       0.00000000       0.00000000       0.00000000       0.00000000
H        0.00000000       3.24026883      20.00000000        3       1.00000000       0.00000000       0.00000000       0.00000000       0.00000000       0.00000000       0.00000000
H        2.80615512       3.24026883      20.00000000        3       1.00000000       0.00000000       0.00000000       0.00000000       0.00000000       0.00000000       0.00000000
H        0.00000000       1.62013441      22.29121606        2       1.00000000       0.00000000       0.00000000       0.00000000       0.00000000       0.00000000       0.00000000
H        2.80615512       1.62013441      22.29121606        2       1.00000000       0.00000000       0.00000000       0.00000000       0.00000000       0.00000000       0.00000000
H        1.40307756       4.05033604      22.29121606        2       1.00000000       0.00000000       0.00000000       0.00000000       0.00000000       0.00000000       0.00000000
H        4.20923268       4.05033604      22.29121606        2       1.00000000       0.00000000       0.00000000       0.00000000       0.00000000       0.00000000       0.00000000
H        0.00000000       0.00000000      24.58243212        1       1.00000000       0.00000000       0.00000000       0.00000000       0.00000000       0.00000000       0.00000000
H        2.80615512       0.00000000      24.58243212        1       1.00000000       0.00000000       0.00000000       0.00000000       0.00000000       0.00000000       0.00000000
H        1.40307756       2.43020162      24.58243212        1       1.00000000       0.00000000       0.00000000       0.00000000       0.00000000       0.00000000       0.00000000
H        4.20923268       2.43020162      24.58243212        1       1.00000000       0.00000000       0.00000000       0.00000000       0.00000000       0.00000000       0.00000000
H        2.80311275       1.62012528      26.81107090        0       1.00000000       0.00000117      -0.00000032      -0.00000055       0.00011253       0.00016112      -0.00000355
H        0.00304349       1.62012547      26.81107086        0       1.00000000      -0.00000072       0.00000085      -0.00000045      -0.00011226       0.00016150       0.00000469
H        4.20923283       4.05032872      26.81106563        0       1.00000000      -0.00000117      -0.00000040       0.00000013       0.00000117      -0.00032381       0.00000056
15
Lattice="5.612310241546866 0.0 0.0 0.0 4.860403243099165 0.0 0.0 0.0 44.58243212332868" Properties=species:S:1:pos:R:3:tags:I:1:masses:R:1:momenta:R:3:forces:R:3 KEmax=19.38899325873873 iter=77615 volume=1216.1236359717223 set_wall=T ns_energy=-9.399538531978006 last_walked_iter_clone=77254 energy=-9.399538512280472 stress="0.024327627360305283 6.6192317349977675e-09 -1.736277088024755e-08 6.6192317349977675e-09 0.024497551070779135 1.3727713641223744e-08 -1.736277088024755e-08 1.3727713641223744e-08 0.014477685125624851" pbc="T T F"
H        1.40307756       0.81006721      20.00000000        3       1.00000000       0.00000000       0.00000000       0.00000000       0.00000000       0.00000000       0.00000000
H        4.20923268       0.81006721      20.00000000        3       1.00000000       0.00000000       0.00000000       0.00000000       0.00000000       0.00000000       0.00000000
H        0.00000000       3.24026883      20.00000000        3       1.00000000       0.00000000       0.00000000       0.00000000       0.00000000       0.00000000       0.00000000
H        2.80615512       3.24026883      20.00000000        3       1.00000000       0.00000000       0.00000000       0.00000000       0.00000000       0.00000000       0.00000000
H        0.00000000       1.62013441      22.29121606        2       1.00000000       0.00000000       0.00000000       0.00000000       0.00000000       0.00000000       0.00000000
H        2.80615512       1.62013441      22.29121606        2       1.00000000       0.00000000       0.00000000       0.00000000       0.00000000       0.00000000       0.00000000
H        1.40307756       4.05033604      22.29121606        2       1.00000000       0.00000000       0.00000000       0.00000000       0.00000000       0.00000000       0.00000000
H        4.20923268       4.05033604      22.29121606        2       1.00000000       0.00000000       0.00000000       0.00000000       0.00000000       0.00000000       0.00000000
H        0.00000000       0.00000000      24.58243212        1       1.00000000       0.00000000       0.00000000       0.00000000       0.00000000       0.00000000       0.00000000
H        2.80615512       0.00000000      24.58243212        1       1.00000000       0.00000000       0.00000000       0.00000000       0.00000000       0.00000000       0.00000000
H        1.40307756       2.43020162      24.58243212        1       1.00000000       0.00000000       0.00000000       0.00000000       0.00000000       0.00000000       0.00000000
H        4.20923268       2.43020162      24.58243212        1       1.00000000       0.00000000       0.00000000       0.00000000       0.00000000       0.00000000       0.00000000
H        2.80311190       1.62012498      26.81107106        0       1.00000000       0.00000118      -0.00000050      -0.00000044       0.00011253       0.00016112      -0.00000355
H        0.00304240       1.62012513      26.81107113        0       1.00000000      -0.00000146      -0.00000013      -0.00000044      -0.00011226       0.00016150       0.00000469
H        4.20923248       4.05032841      26.81106547        0       1.00000000       0.00000078       0.00000102       0.00000055       0.00000117      -0.00032381       0.00000056
15
Lattice="5.612310241546866 0.0 0.0 0.0 4.860403243099165 0.0 0.0 0.0 44.58243212332868" Properties=species:S:1:pos:R:3:tags:I:1:masses:R:1:momenta:R:3:forces:R:3 KEmax=19.38899325873873 iter=77615 volume=1216.1236359717223 set_wall=T ns_energy=-9.399538531977766 last_walked_iter_clone=73856 energy=-9.399538512280472 stress="0.024327627360305283 6.6192317349977675e-09 -1.736277088024755e-08 6.6192317349977675e-09 0.024497551070779135 1.3727713641223744e-08 -1.736277088024755e-08 1.3727713641223744e-08 0.014477685125624851" pbc="T T F"
H        1.40307756       0.81006721      20.00000000        3       1.00000000       0.00000000       0.00000000       0.00000000       0.00000000       0.00000000       0.00000000
H        4.20923268       0.81006721      20.00000000        3       1.00000000       0.00000000       0.00000000       0.00000000       0.00000000       0.00000000       0.00000000
H        0.00000000       3.24026883      20.00000000        3       1.00000000       0.00000000       0.00000000       0.00000000       0.00000000       0.00000000       0.00000000
H        2.80615512       3.24026883      20.00000000        3       1.00000000       0.00000000       0.00000000       0.00000000       0.00000000       0.00000000       0.00000000
H        0.00000000       1.62013441      22.29121606        2       1.00000000       0.00000000       0.00000000       0.00000000       0.00000000       0.00000000       0.00000000
H        2.80615512       1.62013441      22.29121606        2       1.00000000       0.00000000       0.00000000       0.00000000       0.00000000       0.00000000       0.00000000
H        1.40307756       4.05033604      22.29121606        2       1.00000000       0.00000000       0.00000000       0.00000000       0.00000000       0.00000000       0.00000000
H        4.20923268       4.05033604      22.29121606        2       1.00000000       0.00000000       0.00000000       0.00000000       0.00000000       0.00000000       0.00000000
H        0.00000000       0.00000000      24.58243212        1       1.00000000       0.00000000       0.00000000       0.00000000       0.00000000       0.00000000       0.00000000
H        2.80615512       0.00000000      24.58243212        1       1.00000000       0.00000000       0.00000000       0.00000000       0.00000000       0.00000000       0.00000000
H        1.40307756       2.43020162      24.58243212        1       1.00000000       0.00000000       0.00000000       0.00000000       0.00000000       0.00000000       0.00000000
H        4.20923268       2.43020162      24.58243212        1       1.00000000       0.00000000       0.00000000       0.00000000       0.00000000       0.00000000       0.00000000
H        2.80311273       1.62012521      26.81107062        0       1.00000000      -0.00000010       0.00000128      -0.00000032       0.00011253       0.00016112      -0.00000355
H        0.00304331       1.62012475      26.81107088        0       1.00000000       0.00000057      -0.00000124       0.00000036      -0.00011226       0.00016150       0.00000469
H        4.20923202       4.05032829      26.81106478        0       1.00000000      -0.00000006      -0.00000100       0.00000052       0.00000117      -0.00032381       0.00000056
15
Lattice="5.612310241546866 0.0 0.0 0.0 4.860403243099165 0.0 0.0 0.0 44.58243212332868" Properties=species:S:1:pos:R:3:tags:I:1:masses:R:1:momenta:R:3:forces:R:3 KEmax=19.38899325873873 iter=77615 volume=1216.1236359717223 set_wall=T ns_energy=-9.399538531977722 last_walked_iter_clone=74795 energy=-9.399538512280472 stress="0.024327627360305283 6.6192317349977675e-09 -1.736277088024755e-08 6.6192317349977675e-09 0.024497551070779135 1.3727713641223744e-08 -1.736277088024755e-08 1.3727713641223744e-08 0.014477685125624851" pbc="T T F"
H        1.40307756       0.81006721      20.00000000        3       1.00000000       0.00000000       0.00000000       0.00000000       0.00000000       0.00000000       0.00000000
H        4.20923268       0.81006721      20.00000000        3       1.00000000       0.00000000       0.00000000       0.00000000       0.00000000       0.00000000       0.00000000
H        0.00000000       3.24026883      20.00000000        3       1.00000000       0.00000000       0.00000000       0.00000000       0.00000000       0.00000000       0.00000000
H        2.80615512       3.24026883      20.00000000        3       1.00000000       0.00000000       0.00000000       0.00000000       0.00000000       0.00000000       0.00000000
H        0.00000000       1.62013441      22.29121606        2       1.00000000       0.00000000       0.00000000       0.00000000       0.00000000       0.00000000       0.00000000
H        2.80615512       1.62013441      22.29121606        2       1.00000000       0.00000000       0.00000000       0.00000000       0.00000000       0.00000000       0.00000000
H        1.40307756       4.05033604      22.29121606        2       1.00000000       0.00000000       0.00000000       0.00000000       0.00000000       0.00000000       0.00000000
H        4.20923268       4.05033604      22.29121606        2       1.00000000       0.00000000       0.00000000       0.00000000       0.00000000       0.00000000       0.00000000
H        0.00000000       0.00000000      24.58243212        1       1.00000000       0.00000000       0.00000000       0.00000000       0.00000000       0.00000000       0.00000000
H        2.80615512       0.00000000      24.58243212        1       1.00000000       0.00000000       0.00000000       0.00000000       0.00000000       0.00000000       0.00000000
H        1.40307756       2.43020162      24.58243212        1       1.00000000       0.00000000       0.00000000       0.00000000       0.00000000       0.00000000       0.00000000
H        4.20923268       2.43020162      24.58243212        1       1.00000000       0.00000000       0.00000000       0.00000000       0.00000000       0.00000000       0.00000000
H        2.80311336       1.62012392      26.81107110        0       1.00000000       0.00000006      -0.00000043       0.00000060       0.00011253       0.00016112      -0.00000355
H        0.00304392       1.62012491      26.81107102        0       1.00000000      -0.00000058       0.00000048       0.00000114      -0.00011226       0.00016150       0.00000469
H        4.20923261       4.05032762      26.81106485        0       1.00000000      -0.00000123      -0.00000044       0.00000028       0.00000117      -0.00032381       0.00000056
15
Lattice="5.612310241546866 0.0 0.0 0.0 4.860403243099165 0.0 0.0 0.0 44.58243212332868" Properties=species:S:1:pos:R:3:tags:I:1:masses:R:1:momenta:R:3:forces:R:3 KEmax=19.38899325873873 iter=77615 volume=1216.1236359717223 set_wall=T ns_energy=-9.399538531977738 last_walked_iter_clone=76894 energy=-9.399538512280472 stress="0.024327627360305283 6.6192317349977675e-09 -1.736277088024755e-08 6.6192317349977675e-09 0.024497551070779135 1.3727713641223744e-08 -1.736277088024755e-08 1.3727713641223744e-08 0.014477685125624851" pbc="T T F"
H        1.40307756       0.81006721      20.00000000        3       1.00000000       0.00000000       0.00000000       0.00000000       0.00000000       0.00000000       0.00000000
H        4.20923268       0.81006721      20.00000000        3       1.00000000       0.00000000       0.00000000       0.00000000       0.00000000       0.00000000       0.00000000
H        0.00000000       3.24026883      20.00000000        3       1.00000000       0.00000000       0.00000000       0.00000000       0.00000000       0.00000000       0.00000000
H        2.80615512       3.24026883      20.00000000        3       1.00000000       0.00000000       0.00000000       0.00000000       0.00000000       0.00000000       0.00000000
H        0.00000000       1.62013441      22.29121606        2       1.00000000       0.00000000       0.00000000       0.00000000       0.00000000       0.00000000       0.00000000
H        2.80615512       1.62013441      22.29121606        2       1.00000000       0.00000000       0.00000000       0.00000000       0.00000000       0.00000000       0.00000000
H        1.40307756       4.05033604      22.29121606        2       1.00000000       0.00000000       0.00000000       0.00000000       0.00000000       0.00000000       0.00000000
H        4.20923268       4.05033604      22.29121606        2       1.00000000       0.00000000       0.00000000       0.00000000       0.00000000       0.00000000       0.00000000
H        0.00000000       0.00000000      24.58243212        1       1.00000000       0.00000000       0.00000000       0.00000000       0.00000000       0.00000000       0.00000000
H        2.80615512       0.00000000      24.58243212        1       1.00000000       0.00000000       0.00000000       0.00000000       0.00000000       0.00000000       0.00000000
H        1.40307756       2.43020162      24.58243212        1       1.00000000       0.00000000       0.00000000       0.00000000       0.00000000       0.00000000       0.00000000
H        4.20923268       2.43020162      24.58243212        1       1.00000000       0.00000000       0.00000000       0.00000000       0.00000000       0.00000000       0.00000000
H        2.80311213       1.62012414      26.81107086        0       1.00000000      -0.00000052       0.00000114       0.00000056       0.00011253       0.00016112      -0.00000355
H        0.00304268       1.62012521      26.81107068        0       1.00000000       0.00000093       0.00000012       0.00000050      -0.00011226       0.00016150       0.00000469
H        4.20923325       4.05032827      26.81106513        0       1.00000000       0.00000035      -0.00000029      -0.00000137       0.00000117      -0.00032381       0.00000056
15
Lattice="5.612310241546866 0.0 0.0 0.0 4.860403243099165 0.0 0.0 0.0 44.58243212332868" Properties=species:S:1:pos:R:3:tags:I:1:masses:R:1:momenta:R:3:forces:R:3 KEmax=19.38899325873873 iter=77615 volume=1216.1236359717223 set_wall=T ns_energy=-9.3995385319777 last_walked_iter_clone=74703 energy=-9.399538512280472 stress="0.024327627360305283 6.6192317349977675e-09 -1.736277088024755e-08 6.6192317349977675e-09 0.024497551070779135 1.3727713641223744e-08 -1.736277088024755e-08 1.3727713641223744e-08 0.014477685125624851" pbc="T T F"
H        1.40307756       0.81006721      20.00000000        3       1.00000000       0.00000000       0.00000000       0.00000000       0.00000000       0.00000000       0.00000000
H        4.20923268       0.81006721      20.00000000        3       1.00000000       0.00000000       0.00000000       0.00000000       0.00000000       0.00000000       0.00000000
H        0.00000000       3.24026883      20.00000000        3       1.00000000       0.00000000       0.00000000       0.00000000       0.00000000       0.00000000       0.00000000
H        2.80615512       3.24026883      20.00000000        3       1.00000000       0.00000000       0.00000000       0.00000000       0.00000000       0.00000000       0.00000000
H        0.00000000       1.62013441      22.29121606        2       1.00000000       0.00000000       0.00000000       0.00000000       0.00000000       0.00000000       0.00000000
H        2.80615512       1.62013441      22.29121606        2       1.00000000       0.00000000       0.00000000       0.00000000       0.00000000       0.00000000       0.00000000
H        1.40307756       4.05033604      22.29121606        2       1.00000000       0.00000000       0.00000000       0.00000000       0.00000000       0.00000000       0.00000000
H        4.20923268       4.05033604      22.29121606        2       1.00000000       0.00000000       0.00000000       0.00000000       0.00000000       0.00000000       0.00000000
H        0.00000000       0.00000000      24.58243212        1       1.00000000       0.00000000       0.00000000       0.00000000       0.00000000       0.00000000       0.00000000
H        2.80615512       0.00000000      24.58243212        1       1.00000000       0.00000000       0.00000000       0.00000000       0.00000000       0.00000000       0.00000000
H        1.40307756       2.43020162      24.58243212        1       1.00000000       0.00000000       0.00000000       0.00000000       0.00000000       0.00000000       0.00000000
H        4.20923268       2.43020162      24.58243212        1       1.00000000       0.00000000       0.00000000       0.00000000       0.00000000       0.00000000       0.00000000
H        2.80311253       1.62012385      26.81107102        0       1.00000000      -0.00000037       0.00000093      -0.00000084       0.00011253       0.00016112      -0.00000355
H        0.00304292       1.62012367      26.81107151        0       1.00000000      -0.00000093      -0.00000063      -0.00000040      -0.00011226       0.00016150       0.00000469
H        4.20923303       4.05032702      26.81106462        0       1.00000000       0.00000126       0.00000004       0.00000076       0.00000117      -0.00032381       0.00000056
15
Lattice="5.612310241546866 0.0 0.0 0.0 4.860403243099165 0.0 0.0 0.0 44.58243212332868" Properties=species:S:1:pos:R:3:tags:I:1:masses:R:1:momenta:R:3:forces:R:3 KEmax=19.38899325873873 iter=77615 volume=1216.1236359717223 set_wall=T ns_energy=-9.399538531977795 last_walked_iter_clone=74872 energy=-9.399538512280472 stress="0.024327627360305283 6.6192317349977675e-09 -1.736277088024755e-08 6.6192317349977675e-09 0.024497551070779135 1.3727713641223744e-08 -1.736277088024755e-08 1.3727713641223744e-08 0.014477685125624851" pbc="T T F"
H        1.40307756       0.81006721      20.00000000        3       1.00000000       0.00000000       0.00000000       0.00000000       0.00000000       0.00000000       0.00000000
H        4.20923268       0.81006721      20.00000000        3       1.00000000       0.00000000       0.00000000       0.00000000       0.00000000       0.00000000       0.00000000
H        0.00000000       3.24026883      20.00000000        3       1.00000000       0.00000000       0.00000000       0.00000000       0.00000000       0.00000000       0.00000000
H        2.80615512       3.24026883      20.00000000        3       1.00000000       0.00000000       0.00000000       0.00000000       0.00000000       0.00000000       0.00000000
H        0.00000000       1.62013441      22.29121606        2       1.00000000       0.00000000       0.00000000       0.00000000       0.00000000       0.00000000       0.00000000
H        2.80615512       1.62013441      22.29121606        2       1.00000000       0.00000000       0.00000000       0.00000000       0.00000000       0.00000000       0.00000000
H        1.40307756       4.05033604      22.29121606        2       1.00000000       0.00000000       0.00000000       0.00000000       0.00000000       0.00000000       0.00000000
H        4.20923268       4.05033604      22.29121606        2       1.00000000       0.00000000       0.00000000       0.00000000       0.00000000       0.00000000       0.00000000
H        0.00000000       0.00000000      24.58243212        1       1.00000000       0.00000000       0.00000000       0.00000000       0.00000000       0.00000000       0.00000000
H        2.80615512       0.00000000      24.58243212        1       1.00000000       0.00000000       0.00000000       0.00000000       0.00000000       0.00000000       0.00000000
H        1.40307756       2.43020162      24.58243212        1       1.00000000       0.00000000       0.00000000       0.00000000       0.00000000       0.00000000       0.00000000
H        4.20923268       2.43020162      24.58243212        1       1.00000000       0.00000000       0.00000000       0.00000000       0.00000000       0.00000000       0.00000000
H        2.80311170       1.62012497      26.81107098        0       1.00000000       0.00000077       0.00000077       0.00000039       0.00011253       0.00016112      -0.00000355
H        0.00304279       1.62012535      26.81107100        0       1.00000000      -0.00000027      -0.00000118       0.00000055      -0.00011226       0.00016150       0.00000469
H        4.20923257       4.05032798      26.81106524        0       1.00000000      -0.00000022       0.00000149       0.00000055       0.00000117      -0.00032381       0.00000056
15
Lattice="5.612310241546866 0.0 0.0 0.0 4.860403243099165 0.0 0.0 0.0 44.58243212332868" Properties=species:S:1:pos:R:3:tags:I:1:masses:R:1:momenta:R:3:forces:R:3 KEmax=19.38899325873873 iter=77615 volume=1216.1236359717223 set_wall=T ns_energy=-9.399538531977823 last_walked_iter_clone=75549 energy=-9.399538512280472 stress="0.024327627360305283 6.6192317349977675e-09 -1.736277088024755e-08 6.6192317349977675e-09 0.024497551070779135 1.3727713641223744e-08 -1.736277088024755e-08 1.3727713641223744e-08 0.014477685125624851" pbc="T T F"
H        1.40307756       0.81006721      20.00000000        3       1.00000000       0.00000000       0.00000000       0.00000000       0.00000000       0.00000000       0.00000000
H        4.20923268       0.81006721      20.00000000        3       1.00000000       0.00000000       0.00000000       0.00000000       0.00000000       0.00000000       0.00000000
H        0.00000000       3.24026883      20.00000000        3       1.00000000       0.00000000       0.00000000       0.00000000       0.00000000       0.00000000       0.00000000
H        2.80615512       3.24026883      20.00000000        3       1.00000000       0.00000000       0.00000000       0.00000000       0.00000000       0.00000000       0.00000000
H        0.00000000       1.62013441      22.29121606        2       1.00000000       0.00000000       0.00000000       0.00000000       0.00000000       0.00000000       0.00000000
H        2.80615512       1.62013441      22.29121606        2       1.00000000       0.00000000       0.00000000       0.00000000       0.00000000       0.00000000       0.00000000
H        1.40307756       4.05033604      22.29121606        2       1.00000000       0.00000000       0.00000000       0.00000000       0.00000000       0.00000000       0.00000000
H        4.20923268       4.05033604      22.29121606        2       1.00000000       0.00000000       0.00000000       0.00000000       0.00000000       0.00000000       0.00000000
H        0.00000000       0.00000000      24.58243212        1       1.00000000       0.00000000       0.00000000       0.00000000       0.00000000       0.00000000       0.00000000
H        2.80615512       0.00000000      24.58243212        1       1.00000000       0.00000000       0.00000000       0.00000000       0.00000000       0.00000000       0.00000000
H        1.40307756       2.43020162      24.58243212        1       1.00000000       0.00000000       0.00000000       0.00000000       0.00000000       0.00000000       0.00000000
H        4.20923268       2.43020162      24.58243212        1       1.00000000       0.00000000       0.00000000       0.00000000       0.00000000       0.00000000       0.00000000
H        2.80311214       1.62012416      26.81107082        0       1.00000000      -0.00000025       0.00000103       0.00000068       0.00011253       0.00016112      -0.00000355
H        0.00304261       1.62012395      26.81107151        0       1.00000000      -0.00000048      -0.00000034      -0.00000016      -0.00011226       0.00016150       0.00000469
H        4.20923230       4.05032730      26.81106462        0       1.00000000       0.00000091      -0.00000074       0.00000151       0.00000117      -0.00032381       0.00000056
15
Lattice="5.612310241546866 0.0 0.0 0.0 4.860403243099165 0.0 0.0 0.0 44.58243212332868" Properties=species:S:1:pos:R:3:tags:I:1:masses:R:1:momenta:R:3:forces:R:3 KEmax=19.38899325873873 iter=77615 volume=1216.1236359717223 set_wall=T ns_energy=-9.399538531977745 last_walked_iter_clone=74753 energy=-9.399538512280472 stress="0.024327627360305283 6.6192317349977675e-09 -1.736277088024755e-08 6.6192317349977675e-09 0.024497551070779135 1.3727713641223744e-08 -1.736277088024755e-08 1.3727713641223744e-08 0.014477685125624851" pbc="T T F"