20
Lattice="5.612310241546866 0.0 0.0 0.0 4.860403243099165 0.0 0.0 0.0 44.58243212332868" Properties=species:S:1:pos:R:3:tags:I:1:masses:R:1:momenta:R:3:forces:R:3 KEmax=25.851991011651638 iter=100351 volume=1216.1236359717223 set_wall=T ns_energy=-13.635839114117752 last_walked_iter_clone=100271 energy=-13.635843567298759 stress="0.025355190172788453 -1.0980639137927043e-05 5.037192434437939e-06 -1.0980639137927043e-05 0.025345345543035913 9.048259686172458e-06 5.037192434437939e-06 9.048259686172458e-06 0.011539378106999907" pbc="T T F"
H        1.40307756       0.81006721      20.00000000        3       1.00000000       0.00000000       0.00000000       0.00000000       0.00000000       0.00000000       0.00000000
H        4.20923268       0.81006721      20.00000000        3       1.00000000       0.00000000       0.00000000       0.00000000       0.00000000       0.00000000       0.00000000
H        0.00000000       3.24026883      20.00000000        3       1.00000000       0.00000000       0.00000000       0.00000000       0.00000000       0.00000000       0.00000000
H        2.80615512       3.24026883      20.00000000        3       1.00000000       0.00000000       0.00000000       0.00000000       0.00000000       0.00000000       0.00000000
H        0.00000000       1.62013441      22.29121606        2       1.00000000       0.00000000       0.00000000       0.00000000       0.00000000       0.00000000       0.00000000
H        2.80615512       1.62013441      22.29121606        2       1.00000000       0.00000000       0.00000000       0.00000000       0.00000000       0.00000000       0.00000000
H        1.40307756       4.05033604      22.29121606        2       1.00000000       0.00000000       0.00000000       0.00000000       0.00000000       0.00000000       0.00000000
H        4.20923268       4.05033604      22.29121606        2       1.00000000       0.00000000       0.00000000       0.00000000       0.00000000       0.00000000       0.00000000
H        0.00000000       0.00000000      24.58243212        1       1.00000000       0.00000000       0.00000000       0.00000000       0.00000000       0.00000000       0.00000000
H        2.80615512       0.00000000      24.58243212        1       1.00000000       0.00000000       0.00000000       0.00000000       0.00000000       0.00000000       0.00000000
H        1.40307756       2.43020162      24.58243212        1       1.00000000       0.00000000       0.00000000       0.00000000       0.00000000       0.00000000       0.00000000
H        4.20923268       2.43020162      24.58243212        1       1.00000000       0.00000000       0.00000000       0.00000000       0.00000000       0.00000000       0.00000000
H        2.80632673      -0.00057014      29.01754917        0       1.00000000       0.00010574       0.00000418      -0.00121848       0.00355025      -0.00034537       0.00036960
H        1.40336092       2.42953064      29.01725057        0       1.00000000      -0.00073330       0.00055508      -0.00043015      -0.00026279      -0.00011344      -0.00183367
H        0.00002768       1.62043350      26.79084595        0       1.00000000       0.00001557      -0.00085012       0.00034977      -0.00136299       0.00112189       0.00084461
H        1.40308238       4.05104468      26.79081366        0       1.00000000      -0.00073898       0.00004167      -0.00004193      -0.00025053      -0.00102950       0.00253636
H       -0.00037498       4.86098804      29.01719090        0       1.00000000      -0.00058845      -0.00046797      -0.00112946      -0.00080976      -0.00031078       0.00027643
H        4.20962205       4.05089278      26.79060551        0       1.00000000      -0.00061355       0.00001889       0.00052634      -0.00106062      -0.00008321       0.00247748
H        2.80619694       1.62027063      26.79182729        0       1.00000000       0.00008626       0.00007826       0.00054339       0.00024939       0.00107675       0.00241595
H        4.20951329       2.43031222      29.01727956        0       1.00000000       0.00071435       0.00004032       0.00145219      -0.00154752      -0.00027397      -0.00149784
20
Lattice="5.612310241546866 0.0 0.0 0.0 4.860403243099165 0.0 0.0 0.0 44.58243212332868" Properties=species:S:1:pos:R:3:tags:I:1:masses:R:1:momenta:R:3:forces:R:3 KEmax=25.851991011651638 iter=100351 volume=1216.1236359717223 set_wall=T ns_energy=-13.635838795499781 last_walked_iter_clone=100138 energy=-13.635843567298759 stress="0.025355190172788453 -1.0980639137927043e-05 5.037192434437939e-06 -1.0980639137927043e-05 0.025345345543035913 9.048259686172458e-06 5.037192434437939e-06 9.048259686172458e-06 0.011539378106999907" pbc="T T F"
H        1.40307756       0.81006721      20.00000000        3       1.00000000       0.00000000       0.00000000       0.00000000       0.00000000       0.00000000       0.00000000
H        4.20923268       0.81006721      20.00000000        3       1.00000000       0.00000000       0.00000000       0.00000000       0.00000000       0.00000000       0.00000000
H        0.00000000       3.24026883      20.00000000        3       1.00000000       0.00000000       0.00000000       0.00000000       0.00000000       0.00000000       0.00000000
H        2.80615512       3.24026883      20.00000000        3       1.00000000       0.00000000       0.00000000       0.00000000       0.00000000       0.00000000       0.00000000
H        0.00000000       1.62013441      22.29121606        2       1.00000000       0.00000000       0.00000000       0.00000000       0.00000000       0.00000000       0.00000000
H        2.80615512       1.62013441      22.29121606        2       1.00000000       0.00000000       0.00000000       0.00000000       0.00000000       0.00000000       0.00000000
H        1.40307756       4.05033604      22.29121606        2       1.00000000       0.00000000       0.00000000       0.00000000       0.00000000       0.00000000       0.00000000
H        4.20923268       4.05033604      22.29121606        2       1.00000000       0.00000000       0.00000000       0.00000000       0.00000000       0.00000000       0.00000000
H        0.00000000       0.00000000      24.58243212        1       1.00000000       0.00000000       0.00000000       0.00000000       0.00000000       0.00000000       0.00000000
H        2.80615512       0.00000000      24.58243212        1       1.00000000       0.00000000       0.00000000       0.00000000       0.00000000       0.00000000       0.00000000
H        1.40307756       2.43020162      24.58243212        1       1.00000000       0.00000000       0.00000000       0.00000000       0.00000000       0.00000000       0.00000000
H        4.20923268       2.43020162      24.58243212        1       1.00000000       0.00000000       0.00000000       0.00000000       0.00000000       0.00000000       0.00000000
H        2.80646136       4.86101124      29.01702975        0       1.00000000      -0.00075829       0.00075285      -0.00059775       0.00355025      -0.00034537       0.00036960
H        1.40336277       2.43022257      29.01751527        0       1.00000000       0.00092521       0.00002059      -0.00046056      -0.00026279      -0.00011344      -0.00183367
H        5.61216104       1.62021146      26.79107512        0       1.00000000       0.00083991       0.00018874      -0.00044825      -0.00136299       0.00112189       0.00084461
H        1.40337967       4.05008732      26.79094288        0       1.00000000       0.00036115       0.00025190       0.00094527      -0.00025053      -0.00102950       0.00253636
H        0.00063284       4.86081676      29.01781324        0       1.00000000      -0.00033347       0.00012729       0.00214109      -0.00080976      -0.00031078       0.00027643
H        4.20906617       4.05017264      26.79113064        0       1.00000000       0.00070726      -0.00003058      -0.00079727      -0.00106062      -0.00008321       0.00247748
H        2.80637283       1.62064284      26.79098261        0       1.00000000       0.00068036       0.00072565       0.00101698       0.00024939       0.00107675       0.00241595
H        4.21018414       2.43007002      29.01732262        0       1.00000000      -0.00012145       0.00116014       0.00008363      -0.00154752      -0.00027397      -0.00149784
20
Lattice="5.612310241546866 0.0 0.0 0.0 4.860403243099165 0.0 0.0 0.0 44.58243212332868" Properties=species:S:1:pos:R:3:tags:I:1:masses:R:1:momenta:R:3:forces:R:3 KEmax=25.851991011651638 iter=100351 volume=1216.1236359717223 set_wall=T ns_energy=-13.63583919859822 last_walked_iter_clone=100051 energy=-13.635843567298759 stress="0.025355190172788453 -1.0980639137927043e-05 5.037192434437939e-06 -1.0980639137927043e-05 0.025345345543035913 9.048259686172458e-06 5.037192434437939e-06 9.048259686172458e-06 0.011539378106999907" pbc="T T F"
H        1.40307756       0.81006721      20.00000000        3       1.00000000       0.00000000       0.00000000       0.00000000       0.00000000       0.00000000       0.00000000
H        4.20923268       0.81006721      20.00000000        3       1.00000000       0.00000000       0.00000000       0.00000000       0.00000000       0.00000000       0.00000000
H        0.00000000       3.24026883      20.00000000        3       1.00000000       0.00000000       0.00000000       0.00000000       0.00000000       0.00000000       0.00000000
H        2.80615512       3.24026883      20.00000000        3       1.00000000       0.00000000       0.00000000       0.00000000       0.00000000       0.00000000       0.00000000
H        0.00000000       1.62013441      22.29121606        2       1.00000000       0.00000000       0.00000000       0.00000000       0.00000000       0.00000000       0.00000000
H        2.80615512       1.62013441      22.29121606        2       1.00000000       0.00000000       0.00000000       0.00000000       0.00000000       0.00000000       0.00000000
H        1.40307756       4.05033604      22.29121606        2       1.00000000       0.00000000       0.00000000       0.00000000       0.00000000       0.00000000       0.00000000
H        4.20923268       4.05033604      22.29121606        2       1.00000000       0.00000000       0.00000000       0.00000000       0.00000000       0.00000000       0.00000000
H        0.00000000       0.00000000      24.58243212        1       1.00000000       0.00000000       0.00000000       0.00000000       0.00000000       0.00000000       0.00000000
H        2.80615512       0.00000000      24.58243212        1       1.00000000       0.00000000       0.00000000       0.00000000       0.00000000       0.00000000       0.00000000
H        1.40307756       2.43020162      24.58243212        1       1.00000000       0.00000000       0.00000000       0.00000000       0.00000000       0.00000000       0.00000000
H        4.20923268       2.43020162      24.58243212        1       1.00000000       0.00000000       0.00000000       0.00000000       0.00000000       0.00000000       0.00000000
H        2.80592797       4.86073586      29.01777670        0       1.00000000       0.00087019       0.00043891      -0.00003361       0.00355025      -0.00034537       0.00036960
H        1.40344447       2.43074272      29.01752431        0       1.00000000       0.00115349      -0.00107648       0.00037674      -0.00026279      -0.00011344      -0.00183367
H        5.61230092       1.62007971      26.79115194        0       1.00000000       0.00035209      -0.00043373       0.00079227      -0.00136299       0.00112189       0.00084461
H        1.40315983       4.05033485      26.79144828        0       1.00000000      -0.00018604       0.00005782       0.00069056      -0.00025053      -0.00102950       0.00253636
H        5.61231648      -0.00028548      29.01745349        0       1.00000000      -0.00081854       0.00047901       0.00005489      -0.00080976      -0.00031078       0.00027643
H        4.20886836       4.05026341      26.79111391        0       1.00000000      -0.00032527       0.00000661       0.00087391      -0.00106062      -0.00008321       0.00247748
H        2.80632426       1.62021913      26.79153318        0       1.00000000       0.00101336       0.00202533      -0.00118918       0.00024939       0.00107675       0.00241595
H        4.20952001       2.42966357      29.01784848        0       1.00000000      -0.00106021       0.00026108       0.00024717      -0.00154752      -0.00027397      -0.00149784
20
Lattice="5.612310241546866 0.0 0.0 0.0 4.860403243099165 0.0 0.0 0.0 44.58243212332868" Properties=species:S:1:pos:R:3:tags:I:1:masses:R:1:momenta:R:3:forces:R:3 KEmax=25.851991011651638 iter=100351 volume=1216.1236359717223 set_wall=T ns_energy=-13.63583877937808 last_walked_iter_clone=100277 energy=-13.635843567298759 stress="0.025355190172788453 -1.0980639137927043e-05 5.037192434437939e-06 -1.0980639137927043e-05 0.025345345543035913 9.048259686172458e-06 5.037192434437939e-06 9.048259686172458e-06 0.011539378106999907" pbc="T T F"
H        1.40307756       0.81006721      20.00000000        3       1.00000000       0.00000000       0.00000000       0.00000000       0.00000000       0.00000000       0.00000000
H        4.20923268       0.81006721      20.00000000        3       1.00000000       0.00000000       0.00000000       0.00000000       0.00000000       0.00000000       0.00000000
H        0.00000000       3.24026883      20.00000000        3       1.00000000       0.00000000       0.00000000       0.00000000       0.00000000       0.00000000       0.00000000
H        2.80615512       3.24026883      20.00000000        3       1.00000000       0.00000000       0.00000000       0.00000000       0.00000000       0.00000000       0.00000000
H        0.00000000       1.62013441      22.29121606        2       1.00000000       0.00000000       0.00000000       0.00000000       0.00000000       0.00000000       0.00000000
H        2.80615512       1.62013441      22.29121606        2       1.00000000       0.00000000       0.00000000       0.00000000       0.00000000       0.00000000       0.00000000
H        1.40307756       4.05033604      22.29121606        2       1.00000000       0.00000000       0.00000000       0.00000000       0.00000000       0.00000000       0.00000000
H        4.20923268       4.05033604      22.29121606        2       1.00000000       0.00000000       0.00000000       0.00000000       0.00000000       0.00000000       0.00000000
H        0.00000000       0.00000000      24.58243212        1       1.00000000       0.00000000       0.00000000       0.00000000       0.00000000       0.00000000       0.00000000
H        2.80615512       0.00000000      24.58243212        1       1.00000000       0.00000000       0.00000000       0.00000000       0.00000000       0.00000000       0.00000000
H        1.40307756       2.43020162      24.58243212        1       1.00000000       0.00000000       0.00000000       0.00000000       0.00000000       0.00000000       0.00000000
H        4.20923268       2.43020162      24.58243212        1       1.00000000       0.00000000       0.00000000       0.00000000       0.00000000       0.00000000       0.00000000
H        2.80590014       4.86057537      29.01769243        0       1.00000000      -0.00036033       0.00100130      -0.00040460       0.00355025      -0.00034537       0.00036960
H        1.40270662       2.42970048      29.01655925        0       1.00000000       0.00026670      -0.00096047      -0.00109640      -0.00026279      -0.00011344      -0.00183367
H       -0.00028663       1.62002133      26.79050843        0       1.00000000      -0.00106979      -0.00014696      -0.00056101      -0.00136299       0.00112189       0.00084461
H        1.40370087       4.04974766      26.79106534        0       1.00000000      -0.00015062       0.00080185       0.00060890      -0.00025053      -0.00102950       0.00253636
H       -0.00013035       4.86028368      29.01655686        0       1.00000000       0.00006672      -0.00102118      -0.00105075      -0.00080976      -0.00031078       0.00027643
H        4.20921459       4.05038831      26.79075609        0       1.00000000       0.00025871      -0.00013782       0.00023964      -0.00106062      -0.00008321       0.00247748
H        2.80609625       1.61995938      26.79169576        0       1.00000000       0.00067866       0.00049362       0.00068677       0.00024939       0.00107675       0.00241595
H        4.20878376       2.42979506      29.01714354        0       1.00000000      -0.00068980       0.00058149      -0.00040134      -0.00154752      -0.00027397      -0.00149784
20
Lattice="5.612310241546866 0.0 0.0 0.0 4.860403243099165 0.0 0.0 0.0 44.58243212332868" Properties=species:S:1:pos:R:3:tags:I:1:masses:R:1:momenta:R:3:forces:R:3 KEmax=25.851991011651638 iter=100351 volume=1216.1236359717223 set_wall=T ns_energy=-13.63583890542653 last_walked_iter_clone=100216 energy=-13.635843567298759 stress="0.025355190172788453 -1.0980639137927043e-05 5.037192434437939e-06 -1.0980639137927043e-05 0.025345345543035913 9.048259686172458e-06 5.037192434437939e-06 9.048259686172458e-06 0.011539378106999907" pbc="T T F"
H        1.40307756       0.81006721      20.00000000        3       1.00000000       0.00000000       0.00000000       0.00000000       0.00000000       0.00000000       0.00000000
H        4.20923268       0.81006721      20.00000000        3       1.00000000       0.00000000       0.00000000       0.00000000       0.00000000       0.00000000       0.00000000
H        0.00000000       3.24026883      20.00000000        3       1.00000000       0.00000000       0.00000000       0.00000000       0.00000000       0.00000000       0.00000000
H        2.80615512       3.24026883      20.00000000        3       1.00000000       0.00000000       0.00000000       0.00000000       0.00000000       0.00000000       0.00000000
H        0.00000000       1.62013441      22.29121606        2       1.00000000       0.00000000       0.00000000       0.00000000       0.00000000       0.00000000       0.00000000
H        2.80615512       1.62013441      22.29121606        2       1.00000000       0.00000000       0.00000000       0.00000000       0.00000000       0.00000000       0.00000000
H        1.40307756       4.05033604      22.29121606        2       1.00000000       0.00000000       0.00000000       0.00000000       0.00000000       0.00000000       0.00000000
H        4.20923268       4.05033604      22.29121606        2       1.00000000       0.00000000       0.00000000       0.00000000       0.00000000       0.00000000       0.00000000
H        0.00000000       0.00000000      24.58243212        1       1.00000000       0.00000000       0.00000000       0.00000000       0.00000000       0.00000000       0.00000000
H        2.80615512       0.00000000      24.58243212        1       1.00000000       0.00000000       0.00000000       0.00000000       0.00000000       0.00000000       0.00000000
H        1.40307756       2.43020162      24.58243212        1       1.00000000       0.00000000       0.00000000       0.00000000       0.00000000       0.00000000       0.00000000
H        4.20923268       2.43020162      24.58243212        1       1.00000000       0.00000000       0.00000000       0.00000000       0.00000000       0.00000000       0.00000000
H        2.80550742      -0.00043368      29.01830683        0       1.00000000       0.00046777       0.00006208      -0.00061145       0.00355025      -0.00034537       0.00036960
H        1.40271347       2.42959766      29.01749573        0       1.00000000       0.00081994      -0.00064552      -0.00008454      -0.00026279      -0.00011344      -0.00183367
H        5.61189348       1.62064543      26.79098421        0       1.00000000       0.00041576       0.00118424      -0.00022893      -0.00136299       0.00112189       0.00084461
H        1.40253432       4.05061567      26.79151849        0       1.00000000       0.00007512      -0.00087291      -0.00072603      -0.00025053      -0.00102950       0.00253636
H        5.61179012       4.86025992      29.01792554        0       1.00000000      -0.00004555       0.00081243      -0.00003509      -0.00080976      -0.00031078       0.00027643
H        4.20883143       4.05080218      26.79122925        0       1.00000000      -0.00127657       0.00048770       0.00023735      -0.00106062      -0.00008321       0.00247748
H        2.80529619       1.62038623      26.79098695        0       1.00000000       0.00064180      -0.00067609       0.00151745       0.00024939       0.00107675       0.00241595
H        4.20911771       2.42890407      29.01756622        0       1.00000000      -0.00015636      -0.00005053       0.00045438      -0.00154752      -0.00027397      -0.00149784
20
Lattice="5.612310241546866 0.0 0.0 0.0 4.860403243099165 0.0 0.0 0.0 44.58243212332868" Properties=species:S:1:pos:R:3:tags:I:1:masses:R:1:momenta:R:3:forces:R:3 KEmax=25.851991011651638 iter=100351 volume=1216.1236359717223 set_wall=T ns_energy=-13.635838790113253 last_walked_iter_clone=99951 energy=-13.635843567298759 stress="0.025355190172788453 -1.0980639137927043e-05 5.037192434437939e-06 -1.0980639137927043e-05 0.025345345543035913 9.048259686172458e-06 5.037192434437939e-06 9.048259686172458e-06 0.011539378106999907" pbc="T T F"
H        1.40307756       0.81006721      20.00000000        3       1.00000000       0.00000000       0.00000000       0.00000000       0.00000000       0.00000000       0.00000000
H        4.20923268       0.81006721      20.00000000        3       1.00000000       0.00000000       0.00000000       0.00000000       0.00000000       0.00000000       0.00000000
H        0.00000000       3.24026883      20.00000000        3       1.00000000       0.00000000       0.00000000       0.00000000       0.00000000       0.00000000       0.00000000
H        2.80615512       3.24026883      20.00000000        3       1.00000000       0.00000000       0.00000000       0.00000000       0.00000000       0.00000000       0.00000000
H        0.00000000       1.62013441      22.29121606        2       1.00000000       0.00000000       0.00000000       0.00000000       0.00000000       0.00000000       0.00000000
H        2.80615512       1.62013441      22.29121606        2       1.00000000       0.00000000       0.00000000       0.00000000       0.00000000       0.00000000       0.00000000
H        1.40307756       4.05033604      22.29121606        2       1.00000000       0.00000000       0.00000000       0.00000000       0.00000000       0.00000000       0.00000000
H        4.20923268       4.05033604      22.29121606        2       1.00000000       0.00000000       0.00000000       0.00000000       0.00000000       0.00000000       0.00000000
H        0.00000000       0.00000000      24.58243212        1       1.00000000       0.00000000       0.00000000       0.00000000       0.00000000       0.00000000       0.00000000
H        2.80615512       0.00000000      24.58243212        1       1.00000000       0.00000000       0.00000000       0.00000000       0.00000000       0.00000000       0.00000000
H        1.40307756       2.43020162      24.58243212        1       1.00000000       0.00000000       0.00000000       0.00000000       0.00000000       0.00000000       0.00000000
H        4.20923268       2.43020162      24.58243212        1       1.00000000       0.00000000       0.00000000       0.00000000       0.00000000       0.00000000       0.00000000
H        2.80601570      -0.00060235      29.01689455        0       1.00000000      -0.00055577      -0.00030841      -0.00119583       0.00355025      -0.00034537       0.00036960
H        1.40323971       2.43066712      29.01637530        0       1.00000000       0.00060372      -0.00014117       0.00089605      -0.00026279      -0.00011344      -0.00183367
H        5.61201053       1.62040734      26.79135244        0       1.00000000       0.00031210       0.00005063       0.00042238      -0.00136299       0.00112189       0.00084461
H        1.40306453       4.05034603      26.79125020        0       1.00000000       0.00028331       0.00030732      -0.00137633      -0.00025053      -0.00102950       0.00253636
H        0.00013976       4.86086263      29.01726291        0       1.00000000      -0.00040317       0.00079627      -0.00039896      -0.00080976      -0.00031078       0.00027643
H        4.20903460       4.05085581      26.79082123        0       1.00000000       0.00102150      -0.00007314      -0.00135998      -0.00106062      -0.00008321       0.00247748
H        2.80664312       1.62011537      26.79065731        0       1.00000000      -0.00017214      -0.00043098       0.00086371       0.00024939       0.00107675       0.00241595
H        4.20920482       2.43028789      29.01751402        0       1.00000000      -0.00003320      -0.00047435       0.00046421      -0.00154752      -0.00027397      -0.00149784
20
Lattice="5.612310241546866 0.0 0.0 0.0 4.860403243099165 0.0 0.0 0.0 44.58243212332868" Properties=species:S:1:pos:R:3:tags:I:1:masses:R:1:momenta:R:3:forces:R:3 KEmax=25.851991011651638 iter=100351 volume=1216.1236359717223 set_wall=T ns_energy=-13.635839255501907 last_walked_iter_clone=100310 energy=-13.635843567298759 stress="0.025355190172788453 -1.0980639137927043e-05 5.037192434437939e-06 -1.0980639137927043e-05 0.025345345543035913 9.048259686172458e-06 5.037192434437939e-06 9.048259686172458e-06 0.011539378106999907" pbc="T T F"
H        1.40307756       0.81006721      20.00000000        3       1.00000000       0.00000000       0.00000000       0.00000000       0.00000000       0.00000000       0.00000000
H        4.20923268       0.81006721      20.00000000        3       1.00000000       0.00000000       0.00000000       0.00000000       0.00000000       0.00000000       0.00000000
H        0.00000000       3.24026883      20.00000000        3       1.00000000       0.00000000       0.00000000       0.00000000       0.00000000       0.00000000       0.00000000
H        2.80615512       3.24026883      20.00000000        3       1.00000000       0.00000000       0.00000000       0.00000000       0.00000000       0.00000000       0.00000000
H        0.00000000       1.62013441      22.29121606        2       1.00000000       0.00000000       0.00000000       0.00000000       0.00000000       0.00000000       0.00000000
H        2.80615512       1.62013441      22.29121606        2       1.00000000       0.00000000       0.00000000       0.00000000       0.00000000       0.00000000       0.00000000
H        1.40307756       4.05033604      22.29121606        2       1.00000000       0.00000000       0.00000000       0.00000000       0.00000000       0.00000000       0.00000000
H        4.20923268       4.05033604      22.29121606        2       1.00000000       0.00000000       0.00000000       0.00000000       0.00000000       0.00000000       0.00000000
H        0.00000000       0.00000000      24.58243212        1       1.00000000       0.00000000       0.00000000       0.00000000       0.00000000       0.00000000       0.00000000
H        2.80615512       0.00000000      24.58243212        1       1.00000000       0.00000000       0.00000000       0.00000000       0.00000000       0.00000000       0.00000000
H        1.40307756       2.43020162      24.58243212        1       1.00000000       0.00000000       0.00000000       0.00000000       0.00000000       0.00000000       0.00000000
H        4.20923268       2.43020162      24.58243212        1       1.00000000       0.00000000       0.00000000       0.00000000       0.00000000       0.00000000       0.00000000
H        2.80508740       4.85980150      29.01828776        0       1.00000000       0.00096443       0.00038694       0.00070116       0.00355025      -0.00034537       0.00036960
H        1.40181288       2.42914480      29.01759596        0       1.00000000      -0.00052857       0.00000902      -0.00002236      -0.00026279      -0.00011344      -0.00183367
H        5.61170198       1.61949121      26.79115973        0       1.00000000       0.00059496       0.00083108       0.00003255      -0.00136299       0.00112189       0.00084461
H        1.40247964       4.04957312      26.79119924        0       1.00000000       0.00009111      -0.00049699      -0.00012161      -0.00025053      -0.00102950       0.00253636
H        5.61113829       4.85961097      29.01788814        0       1.00000000      -0.00050252      -0.00032054      -0.00106068      -0.00080976      -0.00031078       0.00027643
H        4.20887386       4.04940562      26.79135351        0       1.00000000      -0.00006740      -0.00075074       0.00046473      -0.00106062      -0.00008321       0.00247748
H        2.80523311       1.61971125      26.79131912        0       1.00000000       0.00055712      -0.00046123      -0.00079562       0.00024939       0.00107675       0.00241595
H        4.20794330       2.42829875      29.01700068        0       1.00000000      -0.00022235      -0.00063862      -0.00067998      -0.00154752      -0.00027397      -0.00149784
20
Lattice="5.612310241546866 0.0 0.0 0.0 4.860403243099165 0.0 0.0 0.0 44.58243212332868" Properties=species:S:1:pos:R:3:tags:I:1:masses:R:1:momenta:R:3:forces:R:3 KEmax=25.851991011651638 iter=100351 volume=1216.1236359717223 set_wall=T ns_energy=-13.635838916747197 last_walked_iter_clone=100338 energy=-13.635843567298759 stress="0.025355190172788453 -1.0980639137927043e-05 5.037192434437939e-06 -1.0980639137927043e-05 0.025345345543035913 9.048259686172458e-06 5.037192434437939e-06 9.048259686172458e-06 0.011539378106999907" pbc="T T F"