20
Lattice="5.612310241546866 0.0 0.0 0.0 4.860403243099165 0.0 0.0 0.0 44.58243212332868" Properties=species:S:1:pos:R:3:tags:I:1:masses:R:1:momenta:R:3:forces:R:3 KEmax=25.851991011651638 iter=73940 volume=1216.1236359717223 set_wall=T ns_energy=-13.635179707583173 last_walked_iter_clone=73921 energy=-13.635464446134373 stress="0.025335861210950585 -8.511461440634236e-05 -8.881360811323168e-05 -8.511461440634236e-05 0.025184435939814752 -0.00011684141398247474 -8.881360811323168e-05 -0.00011684141398247474 0.011212050311631482" pbc="T T F"
H        1.40307756       0.81006721      20.00000000        3       1.00000000       0.00000000       0.00000000       0.00000000       0.00000000       0.00000000       0.00000000
H        4.20923268       0.81006721      20.00000000        3       1.00000000       0.00000000       0.00000000       0.00000000       0.00000000       0.00000000       0.00000000
H        0.00000000       3.24026883      20.00000000        3       1.00000000       0.00000000       0.00000000       0.00000000       0.00000000       0.00000000       0.00000000
H        2.80615512       3.24026883      20.00000000        3       1.00000000       0.00000000       0.00000000       0.00000000       0.00000000       0.00000000       0.00000000
H        0.00000000       1.62013441      22.29121606        2       1.00000000       0.00000000       0.00000000       0.00000000       0.00000000       0.00000000       0.00000000
H        2.80615512       1.62013441      22.29121606        2       1.00000000       0.00000000       0.00000000       0.00000000       0.00000000       0.00000000       0.00000000
H        1.40307756       4.05033604      22.29121606        2       1.00000000       0.00000000       0.00000000       0.00000000       0.00000000       0.00000000       0.00000000
H        4.20923268       4.05033604      22.29121606        2       1.00000000       0.00000000       0.00000000       0.00000000       0.00000000       0.00000000       0.00000000
H        0.00000000       0.00000000      24.58243212        1       1.00000000       0.00000000       0.00000000       0.00000000       0.00000000       0.00000000       0.00000000
H        2.80615512       0.00000000      24.58243212        1       1.00000000       0.00000000       0.00000000       0.00000000       0.00000000       0.00000000       0.00000000
H        1.40307756       2.43020162      24.58243212        1       1.00000000       0.00000000       0.00000000       0.00000000       0.00000000       0.00000000       0.00000000
H        4.20923268       2.43020162      24.58243212        1       1.00000000       0.00000000       0.00000000       0.00000000       0.00000000       0.00000000       0.00000000
H        2.79416458      -0.00263107      29.01313819        0       1.00000000      -0.00476504      -0.01010284       0.00619080      -0.00030136      -0.00276811      -0.00497041
H        1.39073058       2.43130092      29.01530664        0       1.00000000       0.00182957      -0.00180522       0.00757511      -0.00024735       0.00656389       0.00596085
H        5.61002472       1.62785068      26.78829913        0       1.00000000       0.00094163       0.00061877       0.01113490      -0.00780814       0.01681527       0.00167985
H        1.39822395       4.05463124      26.78886938        0       1.00000000      -0.00357885      -0.00193506       0.00238572      -0.02055947       0.01221095       0.01032195
H        5.60112220      -0.00138244      29.01253045        0       1.00000000      -0.00006612      -0.01037058      -0.00473790       0.01367915      -0.00665490       0.00478065
H        4.20288002       4.05222655      26.78883130        0       1.00000000       0.00388589      -0.00338350      -0.00083545       0.01096472      -0.01692991       0.00794899
H        2.80317229       1.62254912      26.79407645        0       1.00000000      -0.00389955      -0.00281279      -0.00240550      -0.00148961       0.00475710       0.02784802
H        4.20156954       2.43110570      29.01997164        0       1.00000000      -0.00204769       0.01269679      -0.00205061       0.00122964       0.00094950      -0.00963788
20
Lattice="5.612310241546866 0.0 0.0 0.0 4.860403243099165 0.0 0.0 0.0 44.58243212332868" Properties=species:S:1:pos:R:3:tags:I:1:masses:R:1:momenta:R:3:forces:R:3 KEmax=25.851991011651638 iter=73940 volume=1216.1236359717223 set_wall=T ns_energy=-13.635160248524109 last_walked_iter_clone=73669 energy=-13.635464446134373 stress="0.025335861210950585 -8.511461440634236e-05 -8.881360811323168e-05 -8.511461440634236e-05 0.025184435939814752 -0.00011684141398247474 -8.881360811323168e-05 -0.00011684141398247474 0.011212050311631482" pbc="T T F"
H        1.40307756       0.81006721      20.00000000        3       1.00000000       0.00000000       0.00000000       0.00000000       0.00000000       0.00000000       0.00000000
H        4.20923268       0.81006721      20.00000000        3       1.00000000       0.00000000       0.00000000       0.00000000       0.00000000       0.00000000       0.00000000
H        0.00000000       3.24026883      20.00000000        3       1.00000000       0.00000000       0.00000000       0.00000000       0.00000000       0.00000000       0.00000000
H        2.80615512       3.24026883      20.00000000        3       1.00000000       0.00000000       0.00000000       0.00000000       0.00000000       0.00000000       0.00000000
H        0.00000000       1.62013441      22.29121606        2       1.00000000       0.00000000       0.00000000       0.00000000       0.00000000       0.00000000       0.00000000
H        2.80615512       1.62013441      22.29121606        2       1.00000000       0.00000000       0.00000000       0.00000000       0.00000000       0.00000000       0.00000000
H        1.40307756       4.05033604      22.29121606        2       1.00000000       0.00000000       0.00000000       0.00000000       0.00000000       0.00000000       0.00000000
H        4.20923268       4.05033604      22.29121606        2       1.00000000       0.00000000       0.00000000       0.00000000       0.00000000       0.00000000       0.00000000
H        0.00000000       0.00000000      24.58243212        1       1.00000000       0.00000000       0.00000000       0.00000000       0.00000000       0.00000000       0.00000000
H        2.80615512       0.00000000      24.58243212        1       1.00000000       0.00000000       0.00000000       0.00000000       0.00000000       0.00000000       0.00000000
H        1.40307756       2.43020162      24.58243212        1       1.00000000       0.00000000       0.00000000       0.00000000       0.00000000       0.00000000       0.00000000
H        4.20923268       2.43020162      24.58243212        1       1.00000000       0.00000000       0.00000000       0.00000000       0.00000000       0.00000000       0.00000000
H        2.79990087       4.85266181      29.01188692        0       1.00000000      -0.00451175      -0.00113098      -0.00797022      -0.00030136      -0.00276811      -0.00497041
H        1.39684458       2.42640355      29.01698441        0       1.00000000       0.00449068      -0.00072731      -0.00151462      -0.00024735       0.00656389       0.00596085
H        5.61024373       1.62358163      26.79490827        0       1.00000000      -0.00773920      -0.00569469       0.00355132      -0.00780814       0.01681527       0.00167985
H        1.39590825       4.05501027      26.79244361        0       1.00000000      -0.00508754       0.01365676      -0.00019065      -0.02055947       0.01221095       0.01032195
H        5.60427857       4.85797320      29.01646596        0       1.00000000       0.00504220       0.00110557      -0.00364454       0.01367915      -0.00665490       0.00478065
H        4.20478214       4.05017874      26.78847155        0       1.00000000       0.00837922      -0.00053574       0.00457609       0.01096472      -0.01692991       0.00794899
H        2.80119606       1.62556005      26.79101469        0       1.00000000       0.00558639       0.00018907      -0.00758620      -0.00148961       0.00475710       0.02784802
H        4.20269920       2.42888979      29.01820266        0       1.00000000      -0.00765658       0.00715642      -0.00310888       0.00122964       0.00094950      -0.00963788
20
Lattice="5.612310241546866 0.0 0.0 0.0 4.860403243099165 0.0 0.0 0.0 44.58243212332868" Properties=species:S:1:pos:R:3:tags:I:1:masses:R:1:momenta:R:3:forces:R:3 KEmax=25.851991011651638 iter=73940 volume=1216.1236359717223 set_wall=T ns_energy=-13.635158961899952 last_walked_iter_clone=73603 energy=-13.635464446134373 stress="0.025335861210950585 -8.511461440634236e-05 -8.881360811323168e-05 -8.511461440634236e-05 0.025184435939814752 -0.00011684141398247474 -8.881360811323168e-05 -0.00011684141398247474 0.011212050311631482" pbc="T T F"
H        1.40307756       0.81006721      20.00000000        3       1.00000000       0.00000000       0.00000000       0.00000000       0.00000000       0.00000000       0.00000000
H        4.20923268       0.81006721      20.00000000        3       1.00000000       0.00000000       0.00000000       0.00000000       0.00000000       0.00000000       0.00000000
H        0.00000000       3.24026883      20.00000000        3       1.00000000       0.00000000       0.00000000       0.00000000       0.00000000       0.00000000       0.00000000
H        2.80615512       3.24026883      20.00000000        3       1.00000000       0.00000000       0.00000000       0.00000000       0.00000000       0.00000000       0.00000000
H        0.00000000       1.62013441      22.29121606        2       1.00000000       0.00000000       0.00000000       0.00000000       0.00000000       0.00000000       0.00000000
H        2.80615512       1.62013441      22.29121606        2       1.00000000       0.00000000       0.00000000       0.00000000       0.00000000       0.00000000       0.00000000
H        1.40307756       4.05033604      22.29121606        2       1.00000000       0.00000000       0.00000000       0.00000000       0.00000000       0.00000000       0.00000000
H        4.20923268       4.05033604      22.29121606        2       1.00000000       0.00000000       0.00000000       0.00000000       0.00000000       0.00000000       0.00000000
H        0.00000000       0.00000000      24.58243212        1       1.00000000       0.00000000       0.00000000       0.00000000       0.00000000       0.00000000       0.00000000
H        2.80615512       0.00000000      24.58243212        1       1.00000000       0.00000000       0.00000000       0.00000000       0.00000000       0.00000000       0.00000000
H        1.40307756       2.43020162      24.58243212        1       1.00000000       0.00000000       0.00000000       0.00000000       0.00000000       0.00000000       0.00000000
H        4.20923268       2.43020162      24.58243212        1       1.00000000       0.00000000       0.00000000       0.00000000       0.00000000       0.00000000       0.00000000
H        2.80310757       4.85564692      29.00850604        0       1.00000000       0.00697839       0.00088024      -0.00342161      -0.00030136      -0.00276811      -0.00497041
H        1.40085802       2.42212647      29.02244937        0       1.00000000       0.00336395       0.00286584       0.00397874      -0.00024735       0.00656389       0.00596085
H        5.60740965       1.61673306      26.78955289        0       1.00000000       0.00526171       0.00267077      -0.00779272      -0.00780814       0.01681527       0.00167985
H        1.40078714       4.04610091      26.78610048        0       1.00000000      -0.00494644      -0.00350286       0.00140148      -0.02055947       0.01221095       0.01032195
H        5.60795391       4.84986883      29.01296335        0       1.00000000      -0.00175016      -0.00270744       0.00738279       0.01367915      -0.00665490       0.00478065
H        4.20485192       4.04980708      26.78319114        0       1.00000000       0.00350298       0.00123179       0.00074932       0.01096472      -0.01692991       0.00794899
H        2.80053419       1.61920982      26.78724833        0       1.00000000       0.00803298       0.00072357       0.00705372      -0.00148961       0.00475710       0.02784802
H        4.20001818       2.42606494      29.01131622        0       1.00000000      -0.00170758       0.00831388       0.00701187       0.00122964       0.00094950      -0.00963788
20
Lattice="5.612310241546866 0.0 0.0 0.0 4.860403243099165 0.0 0.0 0.0 44.58243212332868" Properties=species:S:1:pos:R:3:tags:I:1:masses:R:1:momenta:R:3:forces:R:3 KEmax=25.851991011651638 iter=73940 volume=1216.1236359717223 set_wall=T ns_energy=-13.635171912146323 last_walked_iter_clone=73734 energy=-13.635464446134373 stress="0.025335861210950585 -8.511461440634236e-05 -8.881360811323168e-05 -8.511461440634236e-05 0.025184435939814752 -0.00011684141398247474 -8.881360811323168e-05 -0.00011684141398247474 0.011212050311631482" pbc="T T F"
H        1.40307756       0.81006721      20.00000000        3       1.00000000       0.00000000       0.00000000       0.00000000       0.00000000       0.00000000       0.00000000
H        4.20923268       0.81006721      20.00000000        3       1.00000000       0.00000000       0.00000000       0.00000000       0.00000000       0.00000000       0.00000000
H        0.00000000       3.24026883      20.00000000        3       1.00000000       0.00000000       0.00000000       0.00000000       0.00000000       0.00000000       0.00000000
H        2.80615512       3.24026883      20.00000000        3       1.00000000       0.00000000       0.00000000       0.00000000       0.00000000       0.00000000       0.00000000
H        0.00000000       1.62013441      22.29121606        2       1.00000000       0.00000000       0.00000000       0.00000000       0.00000000       0.00000000       0.00000000
H        2.80615512       1.62013441      22.29121606        2       1.00000000       0.00000000       0.00000000       0.00000000       0.00000000       0.00000000       0.00000000
H        1.40307756       4.05033604      22.29121606        2       1.00000000       0.00000000       0.00000000       0.00000000       0.00000000       0.00000000       0.00000000
H        4.20923268       4.05033604      22.29121606        2       1.00000000       0.00000000       0.00000000       0.00000000       0.00000000       0.00000000       0.00000000
H        0.00000000       0.00000000      24.58243212        1       1.00000000       0.00000000       0.00000000       0.00000000       0.00000000       0.00000000       0.00000000
H        2.80615512       0.00000000      24.58243212        1       1.00000000       0.00000000       0.00000000       0.00000000       0.00000000       0.00000000       0.00000000
H        1.40307756       2.43020162      24.58243212        1       1.00000000       0.00000000       0.00000000       0.00000000       0.00000000       0.00000000       0.00000000
H        4.20923268       2.43020162      24.58243212        1       1.00000000       0.00000000       0.00000000       0.00000000       0.00000000       0.00000000       0.00000000
H        2.80499232       4.85907981      29.02065227        0       1.00000000       0.00717424       0.00100104      -0.01339091      -0.00030136      -0.00276811      -0.00497041
H        1.40624987       2.43326411      29.01895948        0       1.00000000       0.00540391      -0.00395369      -0.00361592      -0.00024735       0.00656389       0.00596085
H        5.61645647       1.61504062      26.79108007        0       1.00000000      -0.00044018       0.00624554       0.00152634      -0.00780814       0.01681527       0.00167985
H        1.40400329       4.04567635      26.78910890        0       1.00000000      -0.00367063      -0.00491667      -0.00440354      -0.02055947       0.01221095       0.01032195
H       -0.00094773       4.86073573      29.01191575        0       1.00000000       0.00304019      -0.01138673      -0.00484124       0.01367915      -0.00665490       0.00478065
H        4.20799243       4.04782588      26.78946636        0       1.00000000       0.00298064       0.00042561       0.00722899       0.01096472      -0.01692991       0.00794899
H        2.80725602       1.61697028      26.79334676        0       1.00000000       0.00611382      -0.00556001       0.00177095      -0.00148961       0.00475710       0.02784802
H        4.20784665       2.43211777      29.01636013        0       1.00000000      -0.01347687      -0.00217809       0.00848486       0.00122964       0.00094950      -0.00963788
20
Lattice="5.612310241546866 0.0 0.0 0.0 4.860403243099165 0.0 0.0 0.0 44.58243212332868" Properties=species:S:1:pos:R:3:tags:I:1:masses:R:1:momenta:R:3:forces:R:3 KEmax=25.851991011651638 iter=73940 volume=1216.1236359717223 set_wall=T ns_energy=-13.635183208693617 last_walked_iter_clone=73933 energy=-13.635464446134373 stress="0.025335861210950585 -8.511461440634236e-05 -8.881360811323168e-05 -8.511461440634236e-05 0.025184435939814752 -0.00011684141398247474 -8.881360811323168e-05 -0.00011684141398247474 0.011212050311631482" pbc="T T F"
H        1.40307756       0.81006721      20.00000000        3       1.00000000       0.00000000       0.00000000       0.00000000       0.00000000       0.00000000       0.00000000
H        4.20923268       0.81006721      20.00000000        3       1.00000000       0.00000000       0.00000000       0.00000000       0.00000000       0.00000000       0.00000000
H        0.00000000       3.24026883      20.00000000        3       1.00000000       0.00000000       0.00000000       0.00000000       0.00000000       0.00000000       0.00000000
H        2.80615512       3.24026883      20.00000000        3       1.00000000       0.00000000       0.00000000       0.00000000       0.00000000       0.00000000       0.00000000
H        0.00000000       1.62013441      22.29121606        2       1.00000000       0.00000000       0.00000000       0.00000000       0.00000000       0.00000000       0.00000000
H        2.80615512       1.62013441      22.29121606        2       1.00000000       0.00000000       0.00000000       0.00000000       0.00000000       0.00000000       0.00000000
H        1.40307756       4.05033604      22.29121606        2       1.00000000       0.00000000       0.00000000       0.00000000       0.00000000       0.00000000       0.00000000
H        4.20923268       4.05033604      22.29121606        2       1.00000000       0.00000000       0.00000000       0.00000000       0.00000000       0.00000000       0.00000000
H        0.00000000       0.00000000      24.58243212        1       1.00000000       0.00000000       0.00000000       0.00000000       0.00000000       0.00000000       0.00000000
H        2.80615512       0.00000000      24.58243212        1       1.00000000       0.00000000       0.00000000       0.00000000       0.00000000       0.00000000       0.00000000
H        1.40307756       2.43020162      24.58243212        1       1.00000000       0.00000000       0.00000000       0.00000000       0.00000000       0.00000000       0.00000000
H        4.20923268       2.43020162      24.58243212        1       1.00000000       0.00000000       0.00000000       0.00000000       0.00000000       0.00000000       0.00000000
H        2.79458923      -0.00322460      29.01831996        0       1.00000000      -0.00046564       0.00811889       0.00286884      -0.00030136      -0.00276811      -0.00497041
H        1.39566393       2.42974030      29.01462923        0       1.00000000       0.00424175      -0.00204347       0.00308042      -0.00024735       0.00656389       0.00596085
H        5.60858287       1.62515819      26.79001887        0       1.00000000       0.00800499       0.00014671       0.01233547      -0.00780814       0.01681527       0.00167985
H        1.39754274       4.05192009      26.79003884        0       1.00000000       0.00538442       0.00096726       0.00120046      -0.02055947       0.01221095       0.01032195
H        5.60683849       0.00281667      29.01551900        0       1.00000000      -0.00189701       0.00954661      -0.00582465       0.01367915      -0.00665490       0.00478065
H        4.20626377       4.05587652      26.79270754        0       1.00000000      -0.00339368      -0.00115218      -0.00567078       0.01096472      -0.01692991       0.00794899
H        2.80602629       1.62649810      26.79190264        0       1.00000000       0.00373070       0.01007870      -0.00864263      -0.00148961       0.00475710       0.02784802
H        4.20270720       2.43273015      29.01841574        0       1.00000000       0.00069254      -0.00876517       0.00581099       0.00122964       0.00094950      -0.00963788
20
Lattice="5.612310241546866 0.0 0.0 0.0 4.860403243099165 0.0 0.0 0.0 44.58243212332868" Properties=species:S:1:pos:R:3:tags:I:1:masses:R:1:momenta:R:3:forces:R:3 KEmax=25.851991011651638 iter=73940 volume=1216.1236359717223 set_wall=T ns_energy=-13.635160658278467 last_walked_iter_clone=73924 energy=-13.635464446134373 stress="0.025335861210950585 -8.511461440634236e-05 -8.881360811323168e-05 -8.511461440634236e-05 0.025184435939814752 -0.00011684141398247474 -8.881360811323168e-05 -0.00011684141398247474 0.011212050311631482" pbc="T T F"
H        1.40307756       0.81006721      20.00000000        3       1.00000000       0.00000000       0.00000000       0.00000000       0.00000000       0.00000000       0.00000000
H        4.20923268       0.81006721      20.00000000        3       1.00000000       0.00000000       0.00000000       0.00000000       0.00000000       0.00000000       0.00000000
H        0.00000000       3.24026883      20.00000000        3       1.00000000       0.00000000       0.00000000       0.00000000       0.00000000       0.00000000       0.00000000
H        2.80615512       3.24026883      20.00000000        3       1.00000000       0.00000000       0.00000000       0.00000000       0.00000000       0.00000000       0.00000000
H        0.00000000       1.62013441      22.29121606        2       1.00000000       0.00000000       0.00000000       0.00000000       0.00000000       0.00000000       0.00000000
H        2.80615512       1.62013441      22.29121606        2       1.00000000       0.00000000       0.00000000       0.00000000       0.00000000       0.00000000       0.00000000
H        1.40307756       4.05033604      22.29121606        2       1.00000000       0.00000000       0.00000000       0.00000000       0.00000000       0.00000000       0.00000000
H        4.20923268       4.05033604      22.29121606        2       1.00000000       0.00000000       0.00000000       0.00000000       0.00000000       0.00000000       0.00000000
H        0.00000000       0.00000000      24.58243212        1       1.00000000       0.00000000       0.00000000       0.00000000       0.00000000       0.00000000       0.00000000
H        2.80615512       0.00000000      24.58243212        1       1.00000000       0.00000000       0.00000000       0.00000000       0.00000000       0.00000000       0.00000000
H        1.40307756       2.43020162      24.58243212        1       1.00000000       0.00000000       0.00000000       0.00000000       0.00000000       0.00000000       0.00000000
H        4.20923268       2.43020162      24.58243212        1       1.00000000       0.00000000       0.00000000       0.00000000       0.00000000       0.00000000       0.00000000
H        2.80888402      -0.00468450      29.01629748        0       1.00000000       0.00026612       0.00273097       0.00340095      -0.00030136      -0.00276811      -0.00497041
H        1.40164212       2.42471128      29.01138555        0       1.00000000      -0.01020910      -0.01298344       0.00710770      -0.00024735       0.00656389       0.00596085
H       -0.00535092       1.61965152      26.78547119        0       1.00000000       0.00034076      -0.00096579      -0.00388040      -0.00780814       0.01681527       0.00167985
H        1.40264497       4.05286642      26.78936413        0       1.00000000       0.00094914       0.00021457       0.00190416      -0.02055947       0.01221095       0.01032195
H        5.61558556      -0.00390642      29.02405620        0       1.00000000       0.00838179      -0.00799049       0.00268507       0.01367915      -0.00665490       0.00478065
H        4.20874032       4.05137312      26.79021507        0       1.00000000       0.00236299      -0.00060836      -0.00241674       0.01096472      -0.01692991       0.00794899
H        2.80592768       1.62564399      26.78771084        0       1.00000000      -0.00235037      -0.00147948       0.00338362      -0.00148961       0.00475710       0.02784802
H        4.20749526       2.42302332      29.01741979        0       1.00000000      -0.00353451      -0.00944571      -0.00329013       0.00122964       0.00094950      -0.00963788
20
Lattice="5.612310241546866 0.0 0.0 0.0 4.860403243099165 0.0 0.0 0.0 44.58243212332868" Properties=species:S:1:pos:R:3:tags:I:1:masses:R:1:momenta:R:3:forces:R:3 KEmax=25.851991011651638 iter=73940 volume=1216.1236359717223 set_wall=T ns_energy=-13.635160729876366 last_walked_iter_clone=73812 energy=-13.635464446134373 stress="0.025335861210950585 -8.511461440634236e-05 -8.881360811323168e-05 -8.511461440634236e-05 0.025184435939814752 -0.00011684141398247474 -8.881360811323168e-05 -0.00011684141398247474 0.011212050311631482" pbc="T T F"
H        1.40307756       0.81006721      20.00000000        3       1.00000000       0.00000000       0.00000000       0.00000000       0.00000000       0.00000000       0.00000000
H        4.20923268       0.81006721      20.00000000        3       1.00000000       0.00000000       0.00000000       0.00000000       0.00000000       0.00000000       0.00000000
H        0.00000000       3.24026883      20.00000000        3       1.00000000       0.00000000       0.00000000       0.00000000       0.00000000       0.00000000       0.00000000
H        2.80615512       3.24026883      20.00000000        3       1.00000000       0.00000000       0.00000000       0.00000000       0.00000000       0.00000000       0.00000000
H        0.00000000       1.62013441      22.29121606        2       1.00000000       0.00000000       0.00000000       0.00000000       0.00000000       0.00000000       0.00000000
H        2.80615512       1.62013441      22.29121606        2       1.00000000       0.00000000       0.00000000       0.00000000       0.00000000       0.00000000       0.00000000
H        1.40307756       4.05033604      22.29121606        2       1.00000000       0.00000000       0.00000000       0.00000000       0.00000000       0.00000000       0.00000000
H        4.20923268       4.05033604      22.29121606        2       1.00000000       0.00000000       0.00000000       0.00000000       0.00000000       0.00000000       0.00000000
H        0.00000000       0.00000000      24.58243212        1       1.00000000       0.00000000       0.00000000       0.00000000       0.00000000       0.00000000       0.00000000
H        2.80615512       0.00000000      24.58243212        1       1.00000000       0.00000000       0.00000000       0.00000000       0.00000000       0.00000000       0.00000000
H        1.40307756       2.43020162      24.58243212        1       1.00000000       0.00000000       0.00000000       0.00000000       0.00000000       0.00000000       0.00000000
H        4.20923268       2.43020162      24.58243212        1       1.00000000       0.00000000       0.00000000       0.00000000       0.00000000       0.00000000       0.00000000
H        2.80279532       0.00218335      29.01383307        0       1.00000000      -0.00942323      -0.00540040      -0.00202748      -0.00030136      -0.00276811      -0.00497041
H        1.39716587       2.43678981      29.01389776        0       1.00000000      -0.00268751      -0.00280946       0.00295113      -0.00024735       0.00656389       0.00596085
H        5.61065033       1.62474786      26.78947612        0       1.00000000      -0.00104155       0.01209033      -0.00309231      -0.00780814       0.01681527       0.00167985
H        1.40264584       4.04963619      26.79633084        0       1.00000000      -0.00000558      -0.00201301      -0.00298002      -0.02055947       0.01221095       0.01032195
H       -0.00382872       4.86763717      29.02375048        0       1.00000000       0.00774069       0.00094270       0.00268576       0.01367915      -0.00665490       0.00478065
H        4.20727700       4.05642362      26.79052919        0       1.00000000       0.00971729      -0.00086601      -0.00106574       0.01096472      -0.01692991       0.00794899
H        2.80531424       1.62283380      26.78973708        0       1.00000000      -0.00198350      -0.00753304      -0.00513818      -0.00148961       0.00475710       0.02784802
H        4.20709391       2.43926397      29.01423081        0       1.00000000      -0.00205117       0.00804779      -0.00284477       0.00122964       0.00094950      -0.00963788
20
Lattice="5.612310241546866 0.0 0.0 0.0 4.860403243099165 0.0 0.0 0.0 44.58243212332868" Properties=species:S:1:pos:R:3:tags:I:1:masses:R:1:momenta:R:3:forces:R:3 KEmax=25.851991011651638 iter=73940 volume=1216.1236359717223 set_wall=T ns_energy=-13.635177684828836 last_walked_iter_clone=73906 energy=-13.635464446134373 stress="0.025335861210950585 -8.511461440634236e-05 -8.881360811323168e-05 -8.511461440634236e-05 0.025184435939814752 -0.00011684141398247474 -8.881360811323168e-05 -0.00011684141398247474 0.011212050311631482" pbc="T T F"