20
Lattice="5.612310241546866 0.0 0.0 0.0 4.860403243099165 0.0 0.0 0.0 44.58243212332868" Properties=species:S:1:pos:R:3:tags:I:1:masses:R:1:momenta:R:3 KEmax=25.851991011651638 iter=99 volume=1216.1236359717223 set_wall=T ns_energy=3599.4986734711742 ns_P=0.0 config_n_global=99 ns_KE=11.76959057205493 pbc="T T F"
H        1.40307756       0.81006721      20.00000000        3       1.00000000       0.00000000       0.00000000       0.00000000
H        4.20923268       0.81006721      20.00000000        3       1.00000000       0.00000000       0.00000000       0.00000000
H        0.00000000       3.24026883      20.00000000        3       1.00000000       0.00000000       0.00000000       0.00000000
H        2.80615512       3.24026883      20.00000000        3       1.00000000       0.00000000       0.00000000       0.00000000
H        0.00000000       1.62013441      22.29121606        2       1.00000000       0.00000000       0.00000000       0.00000000
H        2.80615512       1.62013441      22.29121606        2       1.00000000       0.00000000       0.00000000       0.00000000
H        1.40307756       4.05033604      22.29121606        2       1.00000000       0.00000000       0.00000000       0.00000000
H        4.20923268       4.05033604      22.29121606        2       1.00000000       0.00000000       0.00000000       0.00000000
H        0.00000000       0.00000000      24.58243212        1       1.00000000       0.00000000       0.00000000       0.00000000
H        2.80615512       0.00000000      24.58243212        1       1.00000000       0.00000000       0.00000000       0.00000000
H        1.40307756       2.43020162      24.58243212        1       1.00000000       0.00000000       0.00000000       0.00000000
H        4.20923268       2.43020162      24.58243212        1       1.00000000       0.00000000       0.00000000       0.00000000
H        3.91332799       3.65754048      33.40339628        0       1.00000000      -1.02255049      -1.17901258      -1.15682622
H        2.90739860       2.73962486      36.35508730        0       1.00000000       0.73373743      -1.59575506       1.78731753
H        2.83844615       1.58789574      27.48729655        0       1.00000000       0.10280699      -1.33798343      -0.49412845
H        4.44020626       3.30591326      39.69128058        0       1.00000000      -0.26873878       0.91302916       1.38931428
H        0.32923533       4.31046738      35.88996616        0       1.00000000       0.88992031       0.63157598      -0.17179112
H        2.83822389       2.07527158      39.46390776        0       1.00000000       1.26940383       1.32873674      -1.75856104
H        0.99988104       3.58013080      42.08169359        0       1.00000000      -0.13576692       0.15265861      -0.32942219
H        5.16891143       2.96186834      40.53927852        0       1.00000000      -0.79296196       0.21284889       0.30133696
20
Lattice="5.612310241546866 0.0 0.0 0.0 4.860403243099165 0.0 0.0 0.0 44.58243212332868" Properties=species:S:1:pos:R:3:tags:I:1:masses:R:1:momenta:R:3 KEmax=25.851991011651638 iter=199 volume=1216.1236359717223 set_wall=T ns_energy=255.83973639260427 last_walked_iter_clone=144 ns_P=0.0 config_n_global=199 ns_KE=23.938395999141957 pbc="T T F"
H        1.40307756       0.81006721      20.00000000        3       1.00000000       0.00000000       0.00000000       0.00000000
H        4.20923268       0.81006721      20.00000000        3       1.00000000       0.00000000       0.00000000       0.00000000
H        0.00000000       3.24026883      20.00000000        3       1.00000000       0.00000000       0.00000000       0.00000000
H        2.80615512       3.24026883      20.00000000        3       1.00000000       0.00000000       0.00000000       0.00000000
H        0.00000000       1.62013441      22.29121606        2       1.00000000       0.00000000       0.00000000       0.00000000
H        2.80615512       1.62013441      22.29121606        2       1.00000000       0.00000000       0.00000000       0.00000000
H        1.40307756       4.05033604      22.29121606        2       1.00000000       0.00000000       0.00000000       0.00000000
H        4.20923268       4.05033604      22.29121606        2       1.00000000       0.00000000       0.00000000       0.00000000
H        0.00000000       0.00000000      24.58243212        1       1.00000000       0.00000000       0.00000000       0.00000000
H        2.80615512       0.00000000      24.58243212        1       1.00000000       0.00000000       0.00000000       0.00000000
H        1.40307756       2.43020162      24.58243212        1       1.00000000       0.00000000       0.00000000       0.00000000
H        4.20923268       2.43020162      24.58243212        1       1.00000000       0.00000000       0.00000000       0.00000000
H        2.98963474       0.06359445      37.55093368        0       1.00000000       0.37060617       1.68806197      -0.81184728
H        2.28488300       2.66514635      40.49169759        0       1.00000000      -0.48981142      -2.33237525      -0.46738987
H        2.16604446       2.75745455      31.61186135        0       1.00000000      -0.05474512       1.04091013       0.47255477
H        5.23375663       2.33171838      42.30213003        0       1.00000000      -2.55413538       1.39720218      -1.00680004
H        4.78480584       2.37657359      39.20531822        0       1.00000000      -0.27302527       1.44682287       2.81053284
H        3.75105516       0.52250157      36.39015108        0       1.00000000       0.78459355       2.11386867       2.58462806
H        3.42036978       0.92589299      26.72428617        0       1.00000000       0.98780494      -2.02199166       0.63987967
H        1.75901285       1.96056010      38.43535307        0       1.00000000      -0.22407937      -0.06078308       0.41761133
20
Lattice="5.612310241546866 0.0 0.0 0.0 4.860403243099165 0.0 0.0 0.0 44.58243212332868" Properties=species:S:1:pos:R:3:tags:I:1:masses:R:1:momenta:R:3 KEmax=25.851991011651638 iter=299 volume=1216.1236359717223 set_wall=T ns_energy=66.84182556032601 last_walked_iter_clone=260 ns_P=0.0 config_n_global=299 ns_KE=24.548833112810396 pbc="T T F"
H        1.40307756       0.81006721      20.00000000        3       1.00000000       0.00000000       0.00000000       0.00000000
H        4.20923268       0.81006721      20.00000000        3       1.00000000       0.00000000       0.00000000       0.00000000
H        0.00000000       3.24026883      20.00000000        3       1.00000000       0.00000000       0.00000000       0.00000000
H        2.80615512       3.24026883      20.00000000        3       1.00000000       0.00000000       0.00000000       0.00000000
H        0.00000000       1.62013441      22.29121606        2       1.00000000       0.00000000       0.00000000       0.00000000
H        2.80615512       1.62013441      22.29121606        2       1.00000000       0.00000000       0.00000000       0.00000000
H        1.40307756       4.05033604      22.29121606        2       1.00000000       0.00000000       0.00000000       0.00000000
H        4.20923268       4.05033604      22.29121606        2       1.00000000       0.00000000       0.00000000       0.00000000
H        0.00000000       0.00000000      24.58243212        1       1.00000000       0.00000000       0.00000000       0.00000000
H        2.80615512       0.00000000      24.58243212        1       1.00000000       0.00000000       0.00000000       0.00000000
H        1.40307756       2.43020162      24.58243212        1       1.00000000       0.00000000       0.00000000       0.00000000
H        4.20923268       2.43020162      24.58243212        1       1.00000000       0.00000000       0.00000000       0.00000000
H        4.18532143       1.93486968      36.72246263        0       1.00000000      -1.84495023      -0.67908285       2.40420249
H        4.16338670       2.38212383      34.65781257        0       1.00000000       1.69075472      -1.97126846       0.06771357
H        2.05368310       3.38534085      31.57917369        0       1.00000000      -0.29543544       1.50711569      -0.29252194
H        5.55157936       4.51036319      28.49098207        0       1.00000000      -1.51235275      -2.62144712      -2.16720702
H        1.25324423       4.39334262      40.20560467        0       1.00000000      -1.06835912      -0.54496251       0.97491490
H        3.50665596       0.30834325      27.47997206        0       1.00000000       0.30750543       1.61883502       0.25691840
H        1.00497562       4.68486670      38.58682740        0       1.00000000      -0.18354367       1.05894334      -0.41011531
H        0.98898752       1.69589060      29.32515368        0       1.00000000       1.99175662      -2.15864955       1.13268737
20
Lattice="5.612310241546866 0.0 0.0 0.0 4.860403243099165 0.0 0.0 0.0 44.58243212332868" Properties=species:S:1:pos:R:3:tags:I:1:masses:R:1:momenta:R:3 KEmax=25.851991011651638 iter=399 volume=1216.1236359717223 set_wall=T ns_energy=19.82969427745795 last_walked_iter_clone=146 ns_P=0.0 config_n_global=399 ns_KE=24.599873852917995 pbc="T T F"
H        1.40307756       0.81006721      20.00000000        3       1.00000000       0.00000000       0.00000000       0.00000000
H        4.20923268       0.81006721      20.00000000        3       1.00000000       0.00000000       0.00000000       0.00000000
H        0.00000000       3.24026883      20.00000000        3       1.00000000       0.00000000       0.00000000       0.00000000
H        2.80615512       3.24026883      20.00000000        3       1.00000000       0.00000000       0.00000000       0.00000000
H        0.00000000       1.62013441      22.29121606        2       1.00000000       0.00000000       0.00000000       0.00000000
H        2.80615512       1.62013441      22.29121606        2       1.00000000       0.00000000       0.00000000       0.00000000
H        1.40307756       4.05033604      22.29121606        2       1.00000000       0.00000000       0.00000000       0.00000000
H        4.20923268       4.05033604      22.29121606        2       1.00000000       0.00000000       0.00000000       0.00000000
H        0.00000000       0.00000000      24.58243212        1       1.00000000       0.00000000       0.00000000       0.00000000
H        2.80615512       0.00000000      24.58243212        1       1.00000000       0.00000000       0.00000000       0.00000000
H        1.40307756       2.43020162      24.58243212        1       1.00000000       0.00000000       0.00000000       0.00000000
H        4.20923268       2.43020162      24.58243212        1       1.00000000       0.00000000       0.00000000       0.00000000
H        1.09949564       4.35717078      28.90352091        0       1.00000000       0.17707768      -3.90747765       0.68486184
H        4.10064379       1.06153935      30.09956281        0       1.00000000      -1.79091594       0.68813146       0.69255634
H        5.46011074       0.22840292      27.11352205        0       1.00000000      -1.16289175       0.07224959       0.79429209
H        0.02687564       0.86408509      41.14786196        0       1.00000000      -1.91440310       0.59797505       1.42796588
H        5.55672083       2.89489324      40.92951402        0       1.00000000      -0.68485542       1.17515002       1.17503906
H        3.49776825       0.21962544      35.72140665        0       1.00000000       2.28594849      -0.02130748       2.20991928
H        3.02773310       2.04869380      28.13398149        0       1.00000000       2.32064430       0.98148759      -0.31159771
H        0.23750755       0.42002816      35.73173614        0       1.00000000      -0.85834099      -0.22113963      -0.80527368
20
Lattice="5.612310241546866 0.0 0.0 0.0 4.860403243099165 0.0 0.0 0.0 44.58243212332868" Properties=species:S:1:pos:R:3:tags:I:1:masses:R:1:momenta:R:3 KEmax=25.851991011651638 iter=499 volume=1216.1236359717223 set_wall=T ns_energy=17.392271294469925 last_walked_iter_clone=66 ns_P=0.0 config_n_global=499 ns_KE=22.280420873137867 pbc="T T F"
H        1.40307756       0.81006721      20.00000000        3       1.00000000       0.00000000       0.00000000       0.00000000
H        4.20923268       0.81006721      20.00000000        3       1.00000000       0.00000000       0.00000000       0.00000000
H        0.00000000       3.24026883      20.00000000        3       1.00000000       0.00000000       0.00000000       0.00000000
H        2.80615512       3.24026883      20.00000000        3       1.00000000       0.00000000       0.00000000       0.00000000
H        0.00000000       1.62013441      22.29121606        2       1.00000000       0.00000000       0.00000000       0.00000000
H        2.80615512       1.62013441      22.29121606        2       1.00000000       0.00000000       0.00000000       0.00000000
H        1.40307756       4.05033604      22.29121606        2       1.00000000       0.00000000       0.00000000       0.00000000
H        4.20923268       4.05033604      22.29121606        2       1.00000000       0.00000000       0.00000000       0.00000000
H        0.00000000       0.00000000      24.58243212        1       1.00000000       0.00000000       0.00000000       0.00000000
H        2.80615512       0.00000000      24.58243212        1       1.00000000       0.00000000       0.00000000       0.00000000
H        1.40307756       2.43020162      24.58243212        1       1.00000000       0.00000000       0.00000000       0.00000000
H        4.20923268       2.43020162      24.58243212        1       1.00000000       0.00000000       0.00000000       0.00000000
H        0.96888494       1.43240307      38.40620519        0       1.00000000       1.84600527       0.19228339       0.36230510
H        2.62513143       0.48849352      26.71821148        0       1.00000000       2.03212514       1.17651984       1.13271809
H        4.90374270       0.01810732      29.35589531        0       1.00000000      -0.91455688       1.65956019       0.28207001
H        3.12735168       2.37684477      35.99279700        0       1.00000000       1.13457980      -2.14494264      -0.14538572
H        2.10917510       4.07174596      29.00370057        0       1.00000000       0.07133605       0.58896739       0.74602596
H        3.41186847       3.96387241      34.72140242        0       1.00000000       3.00052714       0.45496333       1.12927578
H        3.51754096       3.49680887      39.03776840        0       1.00000000      -0.11708343       0.01365285      -0.87825253
H        4.74153784       1.70916952      31.61035992        0       1.00000000       3.31697460       0.03288679      -1.19424135
20
Lattice="5.612310241546866 0.0 0.0 0.0 4.860403243099165 0.0 0.0 0.0 44.58243212332868" Properties=species:S:1:pos:R:3:tags:I:1:masses:R:1:momenta:R:3 KEmax=25.851991011651638 iter=599 volume=1216.1236359717223 set_wall=T ns_energy=16.365291643588932 last_walked_iter_clone=533 ns_P=0.0 config_n_global=599 ns_KE=24.312912391506675 pbc="T T F"
H        1.40307756       0.81006721      20.00000000        3       1.00000000       0.00000000       0.00000000       0.00000000
H        4.20923268       0.81006721      20.00000000        3       1.00000000       0.00000000       0.00000000       0.00000000
H        0.00000000       3.24026883      20.00000000        3       1.00000000       0.00000000       0.00000000       0.00000000
H        2.80615512       3.24026883      20.00000000        3       1.00000000       0.00000000       0.00000000       0.00000000
H        0.00000000       1.62013441      22.29121606        2       1.00000000       0.00000000       0.00000000       0.00000000
H        2.80615512       1.62013441      22.29121606        2       1.00000000       0.00000000       0.00000000       0.00000000
H        1.40307756       4.05033604      22.29121606        2       1.00000000       0.00000000       0.00000000       0.00000000
H        4.20923268       4.05033604      22.29121606        2       1.00000000       0.00000000       0.00000000       0.00000000
H        0.00000000       0.00000000      24.58243212        1       1.00000000       0.00000000       0.00000000       0.00000000
H        2.80615512       0.00000000      24.58243212        1       1.00000000       0.00000000       0.00000000       0.00000000
H        1.40307756       2.43020162      24.58243212        1       1.00000000       0.00000000       0.00000000       0.00000000
H        4.20923268       2.43020162      24.58243212        1       1.00000000       0.00000000       0.00000000       0.00000000
H        3.25033176       2.01416959      42.48511852        0       1.00000000       3.27026108      -1.49742895       1.65250257
H        2.67455968       4.98409556      38.62892979        0       1.00000000      -0.09809596       2.50915583      -1.62383531
H        5.61079229       3.34449677      28.38130726        0       1.00000000       0.16045242       1.53726858       1.13715162
H        4.11668817       1.54663286      36.45535726        0       1.00000000      -1.61650851       1.49736929      -1.57796702
H        0.59326018       2.44705531      33.92521289        0       1.00000000      -0.96634273       1.27750906      -0.12270226
H        0.20925595       0.78319694      41.08267139        0       1.00000000       1.32881653      -1.38051751      -0.23828215
H        2.82133498       3.02116792      32.18317431        0       1.00000000       1.81494592       0.52980219      -0.63971402
H        3.42943059       1.90962765      34.11429853        0       1.00000000      -1.45167916       0.45775406      -0.61518782
20
Lattice="5.612310241546866 0.0 0.0 0.0 4.860403243099165 0.0 0.0 0.0 44.58243212332868" Properties=species:S:1:pos:R:3:tags:I:1:masses:R:1:momenta:R:3 KEmax=25.851991011651638 iter=699 volume=1216.1236359717223 set_wall=T ns_energy=15.4962139004579 last_walked_iter_clone=556 ns_P=0.0 config_n_global=699 ns_KE=19.805521464843615 pbc="T T F"
H        1.40307756       0.81006721      20.00000000        3       1.00000000       0.00000000       0.00000000       0.00000000
H        4.20923268       0.81006721      20.00000000        3       1.00000000       0.00000000       0.00000000       0.00000000
H        0.00000000       3.24026883      20.00000000        3       1.00000000       0.00000000       0.00000000       0.00000000
H        2.80615512       3.24026883      20.00000000        3       1.00000000       0.00000000       0.00000000       0.00000000
H        0.00000000       1.62013441      22.29121606        2       1.00000000       0.00000000       0.00000000       0.00000000
H        2.80615512       1.62013441      22.29121606        2       1.00000000       0.00000000       0.00000000       0.00000000
H        1.40307756       4.05033604      22.29121606        2       1.00000000       0.00000000       0.00000000       0.00000000
H        4.20923268       4.05033604      22.29121606        2       1.00000000       0.00000000       0.00000000       0.00000000
H        0.00000000       0.00000000      24.58243212        1       1.00000000       0.00000000       0.00000000       0.00000000
H        2.80615512       0.00000000      24.58243212        1       1.00000000       0.00000000       0.00000000       0.00000000
H        1.40307756       2.43020162      24.58243212        1       1.00000000       0.00000000       0.00000000       0.00000000
H        4.20923268       2.43020162      24.58243212        1       1.00000000       0.00000000       0.00000000       0.00000000
H        5.25728753       0.62272769      42.05497186        0       1.00000000      -0.91825011      -0.53716537      -1.97252175
H        0.92334012       3.50962128      38.78505564        0       1.00000000      -0.10896868       1.49584783      -2.37490123
H        1.76790921       3.83852510      36.99693398        0       1.00000000       0.40568637       1.14928829       1.21021239
H        3.36187073       2.86129249      43.35594412        0       1.00000000      -1.51290026      -0.48825130       0.34870102
H        3.11033980       4.74461696      31.15223271        0       1.00000000       0.72778672       0.84921443      -2.69560928
H        4.98258646       3.94752936      33.20784788        0       1.00000000      -1.13119615       0.29902843      -0.38872717
H        0.36826658       1.34891538      37.81337629        0       1.00000000       1.06866451      -1.87696397       0.18363121
H        2.59184723       1.54518395      40.18687493        0       1.00000000      -0.48820212       1.11213915      -2.21104949
20
Lattice="5.612310241546866 0.0 0.0 0.0 4.860403243099165 0.0 0.0 0.0 44.58243212332868" Properties=species:S:1:pos:R:3:tags:I:1:masses:R:1:momenta:R:3 KEmax=25.851991011651638 iter=799 volume=1216.1236359717223 set_wall=T ns_energy=14.617502469949304 last_walked_iter_clone=542 ns_P=0.0 config_n_global=799 ns_KE=20.316082151981888 pbc="T T F"
H        1.40307756       0.81006721      20.00000000        3       1.00000000       0.00000000       0.00000000       0.00000000
H        4.20923268       0.81006721      20.00000000        3       1.00000000       0.00000000       0.00000000       0.00000000
H        0.00000000       3.24026883      20.00000000        3       1.00000000       0.00000000       0.00000000       0.00000000
H        2.80615512       3.24026883      20.00000000        3       1.00000000       0.00000000       0.00000000       0.00000000
H        0.00000000       1.62013441      22.29121606        2       1.00000000       0.00000000       0.00000000       0.00000000
H        2.80615512       1.62013441      22.29121606        2       1.00000000       0.00000000       0.00000000       0.00000000
H        1.40307756       4.05033604      22.29121606        2       1.00000000       0.00000000       0.00000000       0.00000000
H        4.20923268       4.05033604      22.29121606        2       1.00000000       0.00000000       0.00000000       0.00000000
H        0.00000000       0.00000000      24.58243212        1       1.00000000       0.00000000       0.00000000       0.00000000
H        2.80615512       0.00000000      24.58243212        1       1.00000000       0.00000000       0.00000000       0.00000000
H        1.40307756       2.43020162      24.58243212        1       1.00000000       0.00000000       0.00000000       0.00000000
H        4.20923268       2.43020162      24.58243212        1       1.00000000       0.00000000       0.00000000       0.00000000
H        2.58203375       3.37018612      37.47264473        0       1.00000000      -0.86471258       0.14438438      -2.79086109
H        2.85012003       3.28285914      42.96224959        0       1.00000000      -1.44445208      -0.91325616       1.06158075
H        4.13549287       0.66896237      31.58706527        0       1.00000000      -0.06888117      -0.93680968      -0.00551592
H        2.57394664       2.65561459      30.89415409        0       1.00000000      -0.15973260      -0.35082639      -1.08360358
H        0.62505448       1.40978515      41.88450739        0       1.00000000      -0.93323753      -1.11994926       0.03905679
H        2.42381106       2.07335008      26.59790882        0       1.00000000       1.70965252      -2.82129217       0.67656411
H        4.67463981       2.20111742      40.77220890        0       1.00000000       0.09997298      -2.93233196       0.16615848
H        5.43947161       2.93764037      32.10162607        0       1.00000000       0.67668365      -1.51747288      -0.97887226
20
Lattice="5.612310241546866 0.0 0.0 0.0 4.860403243099165 0.0 0.0 0.0 44.58243212332868" Properties=species:S:1:pos:R:3:tags:I:1:masses:R:1:momenta:R:3 KEmax=25.851991011651638 iter=899 volume=1216.1236359717223 set_wall=T ns_energy=13.771841618260444 last_walked_iter_clone=583 ns_P=0.0 config_n_global=899 ns_KE=20.110843117389265 pbc="T T F"
H        1.40307756       0.81006721      20.00000000        3       1.00000000       0.00000000       0.00000000       0.00000000
H        4.20923268       0.81006721      20.00000000        3       1.00000000       0.00000000       0.00000000       0.00000000
H        0.00000000       3.24026883      20.00000000        3       1.00000000       0.00000000       0.00000000       0.00000000
H        2.80615512       3.24026883      20.00000000        3       1.00000000       0.00000000       0.00000000       0.00000000
H        0.00000000       1.62013441      22.29121606        2       1.00000000       0.00000000       0.00000000       0.00000000
H        2.80615512       1.62013441      22.29121606        2       1.00000000       0.00000000       0.00000000       0.00000000
H        1.40307756       4.05033604      22.29121606        2       1.00000000       0.00000000       0.00000000       0.00000000
H        4.20923268       4.05033604      22.29121606        2       1.00000000       0.00000000       0.00000000       0.00000000
H        0.00000000       0.00000000      24.58243212        1       1.00000000       0.00000000       0.00000000       0.00000000
H        2.80615512       0.00000000      24.58243212        1       1.00000000       0.00000000       0.00000000       0.00000000
H        1.40307756       2.43020162      24.58243212        1       1.00000000       0.00000000       0.00000000       0.00000000
H        4.20923268       2.43020162      24.58243212        1       1.00000000       0.00000000       0.00000000       0.00000000
H        2.80683133       0.68597620      30.67222409        0       1.00000000       0.24383487      -1.24862806      -0.14303817
H        1.12719673       2.84182668      30.86906100        0       1.00000000      -1.70128988      -2.02603372       1.07731995
H        1.30750173       0.20550019      32.65759946        0       1.00000000      -0.40177237      -0.42146819       2.20323369
H        4.04988573       2.02904512      35.38622567        0       1.00000000      -1.28844007       0.68356970       2.93120838
H        0.14977416       1.42598359      34.25639280        0       1.00000000      -0.38053602       0.82336133      -1.24349768
H        4.42772675       3.18372263      31.10702090        0       1.00000000       0.85168894       1.45621134      -0.43611160
H        2.04825838       3.35699969      36.95960401        0       1.00000000       0.41620447       0.08819712      -0.29623856
H        4.75611157       1.40646762      29.55295914        0       1.00000000      -1.43633970      -1.27528312       2.26868679
20
Lattice="5.612310241546866 0.0 0.0 0.0 4.860403243099165 0.0 0.0 0.0 44.58243212332868" Properties=species:S:1:pos:R:3:tags:I:1:masses:R:1:momenta:R:3 KEmax=25.851991011651638 iter=999 volume=1216.1236359717223 set_wall=T ns_energy=12.953899206437145 last_walked_iter_clone=795 ns_P=0.0 config_n_global=999 ns_KE=21.073477393188792 pbc="T T F"
H        1.40307756       0.81006721      20.00000000        3       1.00000000       0.00000000       0.00000000       0.00000000
H        4.20923268       0.81006721      20.00000000        3       1.00000000       0.00000000       0.00000000       0.00000000
H        0.00000000       3.24026883      20.00000000        3       1.00000000       0.00000000       0.00000000       0.00000000
H        2.80615512       3.24026883      20.00000000        3       1.00000000       0.00000000       0.00000000       0.00000000
H        0.00000000       1.62013441      22.29121606        2       1.00000000       0.00000000       0.00000000       0.00000000
H        2.80615512       1.62013441      22.29121606        2       1.00000000       0.00000000       0.00000000       0.00000000
H        1.40307756       4.05033604      22.29121606        2       1.00000000       0.00000000       0.00000000       0.00000000
H        4.20923268       4.05033604      22.29121606        2       1.00000000       0.00000000       0.00000000       0.00000000
H        0.00000000       0.00000000      24.58243212        1       1.00000000       0.00000000       0.00000000       0.00000000
H        2.80615512       0.00000000      24.58243212        1       1.00000000       0.00000000       0.00000000       0.00000000
H        1.40307756       2.43020162      24.58243212        1       1.00000000       0.00000000       0.00000000       0.00000000
H        4.20923268       2.43020162      24.58243212        1       1.00000000       0.00000000       0.00000000       0.00000000
H        2.19755645       4.75143446      26.92782151        0       1.00000000       0.58446468      -0.01116060      -0.26047215
H        3.74508563       4.70290371      39.91219322        0       1.00000000       1.85462160      -1.34570448       4.18011797
H        2.19746362       2.55403878      40.36632388        0       1.00000000      -0.25572701      -0.55928339       0.41819910
H        2.38621637       2.54952426      34.10983910        0       1.00000000      -0.13396242       1.03161590       0.31238664
H        0.64045208       1.33317087      35.74507215        0       1.00000000       0.43471630      -0.32230162       0.88616891
H        4.96656167       1.90370579      37.55007999        0       1.00000000       1.12354806       1.63016032       1.10231144
H        2.95695824      -0.05563615      35.70989305        0       1.00000000      -1.33618784      -1.73311504      -0.73068134
H        0.40516435       3.03685011      41.88992066        0       1.00000000       0.42794481      -1.78987646       1.53551598
20
Lattice="5.612310241546866 0.0 0.0 0.0 4.860403243099165 0.0 0.0 0.0 44.58243212332868" Properties=species:S:1:pos:R:3:tags:I:1:masses:R:1:momenta:R:3 KEmax=25.851991011651638 iter=1099 volume=1216.1236359717223 set_wall=T ns_energy=12.272160553314587 last_walked_iter_clone=908 ns_P=0.0 config_n_global=1099 ns_KE=19.64506596121671 pbc="T T F"