20
Lattice="5.612310241546866 0.0 0.0 0.0 4.860403243099165 0.0 0.0 0.0 44.58243212332868" Properties=species:S:1:pos:R:3:tags:I:1:masses:R:1:momenta:R:3:forces:R:3 KEmax=25.851991011651638 iter=39201 volume=1216.1236359717223 set_wall=T ns_energy=-13.489336196226434 last_walked_iter_clone=39064 energy=-13.537194445386747 stress="0.024251671919174145 -0.0015445288259608892 -0.001267558478529631 -0.0015445288259608892 0.02470164461865922 0.0006091522407104781 -0.001267558478529631 0.0006091522407104781 0.012752967182863954" pbc="T T F"
H        1.40307756       0.81006721      20.00000000        3       1.00000000       0.00000000       0.00000000       0.00000000       0.00000000       0.00000000       0.00000000
H        4.20923268       0.81006721      20.00000000        3       1.00000000       0.00000000       0.00000000       0.00000000       0.00000000       0.00000000       0.00000000
H        0.00000000       3.24026883      20.00000000        3       1.00000000       0.00000000       0.00000000       0.00000000       0.00000000       0.00000000       0.00000000
H        2.80615512       3.24026883      20.00000000        3       1.00000000       0.00000000       0.00000000       0.00000000       0.00000000       0.00000000       0.00000000
H        0.00000000       1.62013441      22.29121606        2       1.00000000       0.00000000       0.00000000       0.00000000       0.00000000       0.00000000       0.00000000
H        2.80615512       1.62013441      22.29121606        2       1.00000000       0.00000000       0.00000000       0.00000000       0.00000000       0.00000000       0.00000000
H        1.40307756       4.05033604      22.29121606        2       1.00000000       0.00000000       0.00000000       0.00000000       0.00000000       0.00000000       0.00000000
H        4.20923268       4.05033604      22.29121606        2       1.00000000       0.00000000       0.00000000       0.00000000       0.00000000       0.00000000       0.00000000
H        0.00000000       0.00000000      24.58243212        1       1.00000000       0.00000000       0.00000000       0.00000000       0.00000000       0.00000000       0.00000000
H        2.80615512       0.00000000      24.58243212        1       1.00000000       0.00000000       0.00000000       0.00000000       0.00000000       0.00000000       0.00000000
H        1.40307756       2.43020162      24.58243212        1       1.00000000       0.00000000       0.00000000       0.00000000       0.00000000       0.00000000       0.00000000
H        4.20923268       2.43020162      24.58243212        1       1.00000000       0.00000000       0.00000000       0.00000000       0.00000000       0.00000000       0.00000000
H        2.68768511       0.03595883      28.98715902        0       1.00000000       0.01937714      -0.01476673      -0.07420522      -0.14668684      -0.07740666       0.12815562
H        2.84330798       3.28965064      26.80153333        0       1.00000000      -0.02566095      -0.00717747       0.00083389      -0.11663080      -0.00102469      -0.34762639
H        4.12214204       0.86431017      26.75696225        0       1.00000000       0.07558118      -0.00346709       0.00210114      -0.01911534      -0.09160236       0.09130874
H        5.65223050       3.31250319      26.79866411        0       1.00000000      -0.03178951      -0.03244324      -0.02327736       0.13814800       0.24659037      -0.45037158
H        1.29140094       2.59112177      29.10872327        0       1.00000000      -0.15836050       0.02451932      -0.00713019       0.10653960       0.16634559       0.06764785
H        5.57933992       0.18920100      29.07820317        0       1.00000000       0.05464285       0.08074867       0.11190490      -0.06838919      -0.12878873      -0.14681184
H        1.32479223       0.80157379      26.75184552        0       1.00000000       0.06993915      -0.02546868       0.02027483       0.23900953      -0.05130387      -0.04129172
H        4.16727214       2.55886310      29.02649521        0       1.00000000       0.07158863      -0.04254461      -0.05686871       0.06260285      -0.05092764       0.26328338
20
Lattice="5.612310241546866 0.0 0.0 0.0 4.860403243099165 0.0 0.0 0.0 44.58243212332868" Properties=species:S:1:pos:R:3:tags:I:1:masses:R:1:momenta:R:3:forces:R:3 KEmax=25.851991011651638 iter=39201 volume=1216.1236359717223 set_wall=T ns_energy=-13.492052430851356 last_walked_iter_clone=39181 energy=-13.537194445386747 stress="0.024251671919174145 -0.0015445288259608892 -0.001267558478529631 -0.0015445288259608892 0.02470164461865922 0.0006091522407104781 -0.001267558478529631 0.0006091522407104781 0.012752967182863954" pbc="T T F"
H        1.40307756       0.81006721      20.00000000        3       1.00000000       0.00000000       0.00000000       0.00000000       0.00000000       0.00000000       0.00000000
H        4.20923268       0.81006721      20.00000000        3       1.00000000       0.00000000       0.00000000       0.00000000       0.00000000       0.00000000       0.00000000
H        0.00000000       3.24026883      20.00000000        3       1.00000000       0.00000000       0.00000000       0.00000000       0.00000000       0.00000000       0.00000000
H        2.80615512       3.24026883      20.00000000        3       1.00000000       0.00000000       0.00000000       0.00000000       0.00000000       0.00000000       0.00000000
H        0.00000000       1.62013441      22.29121606        2       1.00000000       0.00000000       0.00000000       0.00000000       0.00000000       0.00000000       0.00000000
H        2.80615512       1.62013441      22.29121606        2       1.00000000       0.00000000       0.00000000       0.00000000       0.00000000       0.00000000       0.00000000
H        1.40307756       4.05033604      22.29121606        2       1.00000000       0.00000000       0.00000000       0.00000000       0.00000000       0.00000000       0.00000000
H        4.20923268       4.05033604      22.29121606        2       1.00000000       0.00000000       0.00000000       0.00000000       0.00000000       0.00000000       0.00000000
H        0.00000000       0.00000000      24.58243212        1       1.00000000       0.00000000       0.00000000       0.00000000       0.00000000       0.00000000       0.00000000
H        2.80615512       0.00000000      24.58243212        1       1.00000000       0.00000000       0.00000000       0.00000000       0.00000000       0.00000000       0.00000000
H        1.40307756       2.43020162      24.58243212        1       1.00000000       0.00000000       0.00000000       0.00000000       0.00000000       0.00000000       0.00000000
H        4.20923268       2.43020162      24.58243212        1       1.00000000       0.00000000       0.00000000       0.00000000       0.00000000       0.00000000       0.00000000
H        2.83604634       4.78765400      28.98389618        0       1.00000000      -0.07230069       0.10653467       0.03954108      -0.14668684      -0.07740666       0.12815562
H        2.81660118       3.22732290      26.77870840        0       1.00000000       0.06171646       0.02713380       0.03335623      -0.11663080      -0.00102469      -0.34762639
H        4.25980393       0.73727285      26.77830420        0       1.00000000      -0.06078901       0.01730432      -0.14534479      -0.01911534      -0.09160236       0.09130874
H        5.59444787       3.19607449      26.78373447        0       1.00000000       0.01166268       0.02837995      -0.07466048       0.13814800       0.24659037      -0.45037158
H        1.40927825       2.38358017      29.04608551        0       1.00000000      -0.01346498       0.06652185      -0.02503678       0.10653960       0.16634559       0.06764785
H        0.00932095       4.69542406      29.10106963        0       1.00000000      -0.03052099       0.00146353      -0.10792628      -0.06838919      -0.12878873      -0.14681184
H        1.32319094       0.72392940      26.82382940        0       1.00000000      -0.00482726       0.28204758       0.04156371       0.23900953      -0.05130387      -0.04129172
H        4.24076431       2.30524298      29.05390027        0       1.00000000       0.05552230       0.03202488      -0.00869934       0.06260285      -0.05092764       0.26328338
20
Lattice="5.612310241546866 0.0 0.0 0.0 4.860403243099165 0.0 0.0 0.0 44.58243212332868" Properties=species:S:1:pos:R:3:tags:I:1:masses:R:1:momenta:R:3:forces:R:3 KEmax=25.851991011651638 iter=39201 volume=1216.1236359717223 set_wall=T ns_energy=-13.485859521630578 last_walked_iter_clone=38848 energy=-13.537194445386747 stress="0.024251671919174145 -0.0015445288259608892 -0.001267558478529631 -0.0015445288259608892 0.02470164461865922 0.0006091522407104781 -0.001267558478529631 0.0006091522407104781 0.012752967182863954" pbc="T T F"
H        1.40307756       0.81006721      20.00000000        3       1.00000000       0.00000000       0.00000000       0.00000000       0.00000000       0.00000000       0.00000000
H        4.20923268       0.81006721      20.00000000        3       1.00000000       0.00000000       0.00000000       0.00000000       0.00000000       0.00000000       0.00000000
H        0.00000000       3.24026883      20.00000000        3       1.00000000       0.00000000       0.00000000       0.00000000       0.00000000       0.00000000       0.00000000
H        2.80615512       3.24026883      20.00000000        3       1.00000000       0.00000000       0.00000000       0.00000000       0.00000000       0.00000000       0.00000000
H        0.00000000       1.62013441      22.29121606        2       1.00000000       0.00000000       0.00000000       0.00000000       0.00000000       0.00000000       0.00000000
H        2.80615512       1.62013441      22.29121606        2       1.00000000       0.00000000       0.00000000       0.00000000       0.00000000       0.00000000       0.00000000
H        1.40307756       4.05033604      22.29121606        2       1.00000000       0.00000000       0.00000000       0.00000000       0.00000000       0.00000000       0.00000000
H        4.20923268       4.05033604      22.29121606        2       1.00000000       0.00000000       0.00000000       0.00000000       0.00000000       0.00000000       0.00000000
H        0.00000000       0.00000000      24.58243212        1       1.00000000       0.00000000       0.00000000       0.00000000       0.00000000       0.00000000       0.00000000
H        2.80615512       0.00000000      24.58243212        1       1.00000000       0.00000000       0.00000000       0.00000000       0.00000000       0.00000000       0.00000000
H        1.40307756       2.43020162      24.58243212        1       1.00000000       0.00000000       0.00000000       0.00000000       0.00000000       0.00000000       0.00000000
H        4.20923268       2.43020162      24.58243212        1       1.00000000       0.00000000       0.00000000       0.00000000       0.00000000       0.00000000       0.00000000
H        2.84530033       4.73375704      29.00678755        0       1.00000000       0.02322843      -0.05596125      -0.07306516      -0.14668684      -0.07740666       0.12815562
H        1.41364277       2.31916281      29.07077533        0       1.00000000      -0.02442499      -0.17591585       0.00651937      -0.11663080      -0.00102469      -0.34762639
H        0.04535670       1.55536448      26.78946137        0       1.00000000       0.01377630      -0.07101335      -0.08529380      -0.01911534      -0.09160236       0.09130874
H        1.42994903       3.93662430      26.79157810        0       1.00000000      -0.00860502       0.11582307       0.02937578       0.13814800       0.24659037      -0.45037158
H        0.08105505       4.84067705      28.96439691        0       1.00000000       0.03389604       0.02587780      -0.16715120       0.10653960       0.16634559       0.06764785
H        4.31686067       3.95936556      26.82752334        0       1.00000000      -0.11184717      -0.06259667      -0.00541105      -0.06838919      -0.12878873      -0.14681184
H        2.88611892       1.52277832      26.81724188        0       1.00000000      -0.03777448      -0.00201944       0.00750787       0.23900953      -0.05130387      -0.04129172
H        4.27269155       2.35158486      29.17765254        0       1.00000000       0.11132389       0.06624584      -0.15029867       0.06260285      -0.05092764       0.26328338
20
Lattice="5.612310241546866 0.0 0.0 0.0 4.860403243099165 0.0 0.0 0.0 44.58243212332868" Properties=species:S:1:pos:R:3:tags:I:1:masses:R:1:momenta:R:3:forces:R:3 KEmax=25.851991011651638 iter=39201 volume=1216.1236359717223 set_wall=T ns_energy=-13.49024516035029 last_walked_iter_clone=38943 energy=-13.537194445386747 stress="0.024251671919174145 -0.0015445288259608892 -0.001267558478529631 -0.0015445288259608892 0.02470164461865922 0.0006091522407104781 -0.001267558478529631 0.0006091522407104781 0.012752967182863954" pbc="T T F"
H        1.40307756       0.81006721      20.00000000        3       1.00000000       0.00000000       0.00000000       0.00000000       0.00000000       0.00000000       0.00000000
H        4.20923268       0.81006721      20.00000000        3       1.00000000       0.00000000       0.00000000       0.00000000       0.00000000       0.00000000       0.00000000
H        0.00000000       3.24026883      20.00000000        3       1.00000000       0.00000000       0.00000000       0.00000000       0.00000000       0.00000000       0.00000000
H        2.80615512       3.24026883      20.00000000        3       1.00000000       0.00000000       0.00000000       0.00000000       0.00000000       0.00000000       0.00000000
H        0.00000000       1.62013441      22.29121606        2       1.00000000       0.00000000       0.00000000       0.00000000       0.00000000       0.00000000       0.00000000
H        2.80615512       1.62013441      22.29121606        2       1.00000000       0.00000000       0.00000000       0.00000000       0.00000000       0.00000000       0.00000000
H        1.40307756       4.05033604      22.29121606        2       1.00000000       0.00000000       0.00000000       0.00000000       0.00000000       0.00000000       0.00000000
H        4.20923268       4.05033604      22.29121606        2       1.00000000       0.00000000       0.00000000       0.00000000       0.00000000       0.00000000       0.00000000
H        0.00000000       0.00000000      24.58243212        1       1.00000000       0.00000000       0.00000000       0.00000000       0.00000000       0.00000000       0.00000000
H        2.80615512       0.00000000      24.58243212        1       1.00000000       0.00000000       0.00000000       0.00000000       0.00000000       0.00000000       0.00000000
H        1.40307756       2.43020162      24.58243212        1       1.00000000       0.00000000       0.00000000       0.00000000       0.00000000       0.00000000       0.00000000
H        4.20923268       2.43020162      24.58243212        1       1.00000000       0.00000000       0.00000000       0.00000000       0.00000000       0.00000000       0.00000000
H        2.77007392       4.91410780      28.98139816        0       1.00000000      -0.00931082      -0.04255476       0.07784874      -0.14668684      -0.07740666       0.12815562
H        2.82883773       3.19420757      26.82410235        0       1.00000000       0.06075706      -0.18033157       0.03876080      -0.11663080      -0.00102469      -0.34762639
H        4.21747624       0.83181485      26.74144293        0       1.00000000      -0.06021117      -0.03499320      -0.13989785      -0.01911534      -0.09160236       0.09130874
H        0.00245952       3.29263143      26.84543840        0       1.00000000      -0.08370439       0.03346293       0.12558500       0.13814800       0.24659037      -0.45037158
H        1.42970149       2.45028187      29.03529564        0       1.00000000       0.01085112       0.00343787      -0.01441276       0.10653960       0.16634559       0.06764785
H        0.00788194      -0.04874602      29.14599585        0       1.00000000      -0.14752736      -0.04521502       0.12855651      -0.06838919      -0.12878873      -0.14681184
H        1.39858442       0.84310590      26.82399372        0       1.00000000      -0.02523977       0.04693116       0.00963141       0.23900953      -0.05130387      -0.04129172
H        4.24563633       2.32550174      29.07422982        0       1.00000000       0.02968174       0.10860749       0.06407039       0.06260285      -0.05092764       0.26328338
20
Lattice="5.612310241546866 0.0 0.0 0.0 4.860403243099165 0.0 0.0 0.0 44.58243212332868" Properties=species:S:1:pos:R:3:tags:I:1:masses:R:1:momenta:R:3:forces:R:3 KEmax=25.851991011651638 iter=39201 volume=1216.1236359717223 set_wall=T ns_energy=-13.493215210351913 last_walked_iter_clone=39145 energy=-13.537194445386747 stress="0.024251671919174145 -0.0015445288259608892 -0.001267558478529631 -0.0015445288259608892 0.02470164461865922 0.0006091522407104781 -0.001267558478529631 0.0006091522407104781 0.012752967182863954" pbc="T T F"
H        1.40307756       0.81006721      20.00000000        3       1.00000000       0.00000000       0.00000000       0.00000000       0.00000000       0.00000000       0.00000000
H        4.20923268       0.81006721      20.00000000        3       1.00000000       0.00000000       0.00000000       0.00000000       0.00000000       0.00000000       0.00000000
H        0.00000000       3.24026883      20.00000000        3       1.00000000       0.00000000       0.00000000       0.00000000       0.00000000       0.00000000       0.00000000
H        2.80615512       3.24026883      20.00000000        3       1.00000000       0.00000000       0.00000000       0.00000000       0.00000000       0.00000000       0.00000000
H        0.00000000       1.62013441      22.29121606        2       1.00000000       0.00000000       0.00000000       0.00000000       0.00000000       0.00000000       0.00000000
H        2.80615512       1.62013441      22.29121606        2       1.00000000       0.00000000       0.00000000       0.00000000       0.00000000       0.00000000       0.00000000
H        1.40307756       4.05033604      22.29121606        2       1.00000000       0.00000000       0.00000000       0.00000000       0.00000000       0.00000000       0.00000000
H        4.20923268       4.05033604      22.29121606        2       1.00000000       0.00000000       0.00000000       0.00000000       0.00000000       0.00000000       0.00000000
H        0.00000000       0.00000000      24.58243212        1       1.00000000       0.00000000       0.00000000       0.00000000       0.00000000       0.00000000       0.00000000
H        2.80615512       0.00000000      24.58243212        1       1.00000000       0.00000000       0.00000000       0.00000000       0.00000000       0.00000000       0.00000000
H        1.40307756       2.43020162      24.58243212        1       1.00000000       0.00000000       0.00000000       0.00000000       0.00000000       0.00000000       0.00000000
H        4.20923268       2.43020162      24.58243212        1       1.00000000       0.00000000       0.00000000       0.00000000       0.00000000       0.00000000       0.00000000
H        2.95094675       4.93326760      29.08901461        0       1.00000000       0.01069013       0.18120545      -0.01707256      -0.14668684      -0.07740666       0.12815562
H        2.82597539       3.31918176      26.77140817        0       1.00000000       0.01013284      -0.00149855       0.14056544      -0.11663080      -0.00102469      -0.34762639
H        4.24723339       0.86569527      26.78553121        0       1.00000000      -0.11838771       0.12129407      -0.00130175      -0.01911534      -0.09160236       0.09130874
H        0.02231009       3.26634919      26.74588733        0       1.00000000      -0.07823954       0.00426196      -0.04152905       0.13814800       0.24659037      -0.45037158
H        1.54032409       2.37141861      29.05310282        0       1.00000000       0.01225124       0.04775205      -0.06163996       0.10653960       0.16634559       0.06764785
H        0.13057303       0.00293291      29.05280163        0       1.00000000       0.03701593      -0.03595661      -0.00553515      -0.06838919      -0.12878873      -0.14681184
H        1.46358648       0.87008014      26.78889589        0       1.00000000      -0.12291289      -0.06534515       0.01324494       0.23900953      -0.05130387      -0.04129172
H        4.36246505       2.54273667      28.97218487        0       1.00000000      -0.06497183      -0.01718695       0.14812170       0.06260285      -0.05092764       0.26328338
20
Lattice="5.612310241546866 0.0 0.0 0.0 4.860403243099165 0.0 0.0 0.0 44.58243212332868" Properties=species:S:1:pos:R:3:tags:I:1:masses:R:1:momenta:R:3:forces:R:3 KEmax=25.851991011651638 iter=39201 volume=1216.1236359717223 set_wall=T ns_energy=-13.486757109838518 last_walked_iter_clone=39024 energy=-13.537194445386747 stress="0.024251671919174145 -0.0015445288259608892 -0.001267558478529631 -0.0015445288259608892 0.02470164461865922 0.0006091522407104781 -0.001267558478529631 0.0006091522407104781 0.012752967182863954" pbc="T T F"
H        1.40307756       0.81006721      20.00000000        3       1.00000000       0.00000000       0.00000000       0.00000000       0.00000000       0.00000000       0.00000000
H        4.20923268       0.81006721      20.00000000        3       1.00000000       0.00000000       0.00000000       0.00000000       0.00000000       0.00000000       0.00000000
H        0.00000000       3.24026883      20.00000000        3       1.00000000       0.00000000       0.00000000       0.00000000       0.00000000       0.00000000       0.00000000
H        2.80615512       3.24026883      20.00000000        3       1.00000000       0.00000000       0.00000000       0.00000000       0.00000000       0.00000000       0.00000000
H        0.00000000       1.62013441      22.29121606        2       1.00000000       0.00000000       0.00000000       0.00000000       0.00000000       0.00000000       0.00000000
H        2.80615512       1.62013441      22.29121606        2       1.00000000       0.00000000       0.00000000       0.00000000       0.00000000       0.00000000       0.00000000
H        1.40307756       4.05033604      22.29121606        2       1.00000000       0.00000000       0.00000000       0.00000000       0.00000000       0.00000000       0.00000000
H        4.20923268       4.05033604      22.29121606        2       1.00000000       0.00000000       0.00000000       0.00000000       0.00000000       0.00000000       0.00000000
H        0.00000000       0.00000000      24.58243212        1       1.00000000       0.00000000       0.00000000       0.00000000       0.00000000       0.00000000       0.00000000
H        2.80615512       0.00000000      24.58243212        1       1.00000000       0.00000000       0.00000000       0.00000000       0.00000000       0.00000000       0.00000000
H        1.40307756       2.43020162      24.58243212        1       1.00000000       0.00000000       0.00000000       0.00000000       0.00000000       0.00000000       0.00000000
H        4.20923268       2.43020162      24.58243212        1       1.00000000       0.00000000       0.00000000       0.00000000       0.00000000       0.00000000       0.00000000
H        2.82139757      -0.02543562      28.99131994        0       1.00000000       0.05549516       0.06738726      -0.04433459      -0.14668684      -0.07740666       0.12815562
H        1.46005295       2.47321760      29.04773875        0       1.00000000      -0.03421004       0.01073659      -0.06612759      -0.11663080      -0.00102469      -0.34762639
H        0.02691819       1.71643379      26.80453698        0       1.00000000      -0.11411012       0.00689897      -0.04237191      -0.01911534      -0.09160236       0.09130874
H        1.41401124       4.07094500      26.76122663        0       1.00000000       0.07304878      -0.23197600       0.08532990       0.13814800       0.24659037      -0.45037158
H        0.00014760       0.00451813      28.94722706        0       1.00000000      -0.01609648      -0.10727560      -0.03581170       0.10653960       0.16634559       0.06764785
H        4.22778929       4.09533869      26.78325862        0       1.00000000      -0.13786751      -0.09345913      -0.05941513      -0.06838919      -0.12878873      -0.14681184
H        2.84163986       1.68011977      26.75240932        0       1.00000000       0.05609883       0.10216096       0.03719648       0.23900953      -0.05130387      -0.04129172
H        4.21125288       2.35454908      29.02749249        0       1.00000000      -0.01368895      -0.20468883       0.10764910       0.06260285      -0.05092764       0.26328338
20
Lattice="5.612310241546866 0.0 0.0 0.0 4.860403243099165 0.0 0.0 0.0 44.58243212332868" Properties=species:S:1:pos:R:3:tags:I:1:masses:R:1:momenta:R:3:forces:R:3 KEmax=25.851991011651638 iter=39201 volume=1216.1236359717223 set_wall=T ns_energy=-13.492076991388151 last_walked_iter_clone=39197 energy=-13.537194445386747 stress="0.024251671919174145 -0.0015445288259608892 -0.001267558478529631 -0.0015445288259608892 0.02470164461865922 0.0006091522407104781 -0.001267558478529631 0.0006091522407104781 0.012752967182863954" pbc="T T F"
H        1.40307756       0.81006721      20.00000000        3       1.00000000       0.00000000       0.00000000       0.00000000       0.00000000       0.00000000       0.00000000
H        4.20923268       0.81006721      20.00000000        3       1.00000000       0.00000000       0.00000000       0.00000000       0.00000000       0.00000000       0.00000000
H        0.00000000       3.24026883      20.00000000        3       1.00000000       0.00000000       0.00000000       0.00000000       0.00000000       0.00000000       0.00000000
H        2.80615512       3.24026883      20.00000000        3       1.00000000       0.00000000       0.00000000       0.00000000       0.00000000       0.00000000       0.00000000
H        0.00000000       1.62013441      22.29121606        2       1.00000000       0.00000000       0.00000000       0.00000000       0.00000000       0.00000000       0.00000000
H        2.80615512       1.62013441      22.29121606        2       1.00000000       0.00000000       0.00000000       0.00000000       0.00000000       0.00000000       0.00000000
H        1.40307756       4.05033604      22.29121606        2       1.00000000       0.00000000       0.00000000       0.00000000       0.00000000       0.00000000       0.00000000
H        4.20923268       4.05033604      22.29121606        2       1.00000000       0.00000000       0.00000000       0.00000000       0.00000000       0.00000000       0.00000000
H        0.00000000       0.00000000      24.58243212        1       1.00000000       0.00000000       0.00000000       0.00000000       0.00000000       0.00000000       0.00000000
H        2.80615512       0.00000000      24.58243212        1       1.00000000       0.00000000       0.00000000       0.00000000       0.00000000       0.00000000       0.00000000
H        1.40307756       2.43020162      24.58243212        1       1.00000000       0.00000000       0.00000000       0.00000000       0.00000000       0.00000000       0.00000000
H        4.20923268       2.43020162      24.58243212        1       1.00000000       0.00000000       0.00000000       0.00000000       0.00000000       0.00000000       0.00000000
H        2.74209108      -0.09382691      29.17155679        0       1.00000000       0.16427578      -0.04710799       0.08424673      -0.14668684      -0.07740666       0.12815562
H        2.70191431       3.24015049      26.80033203        0       1.00000000      -0.10405340      -0.03352554       0.05704293      -0.11663080      -0.00102469      -0.34762639
H        4.15959881       0.75843964      26.74463216        0       1.00000000       0.04411480      -0.01622299       0.08417393      -0.01911534      -0.09160236       0.09130874
H        0.00681034       3.21365713      26.75108635        0       1.00000000      -0.06217084       0.04689078      -0.02380299       0.13814800       0.24659037      -0.45037158
H        1.37191311       2.37978728      29.06394374        0       1.00000000      -0.01351564      -0.01285223      -0.08818846       0.10653960       0.16634559       0.06764785
H        5.56399497       4.81950237      29.02564837        0       1.00000000      -0.08157313       0.02860861       0.09824882      -0.06838919      -0.12878873      -0.14681184
H        1.39307044       0.77257767      26.79299731        0       1.00000000      -0.05962721      -0.05041804       0.03191808       0.23900953      -0.05130387      -0.04129172
H        4.26009405       2.36212560      28.93241928        0       1.00000000       0.04632301      -0.17818229       0.03420869       0.06260285      -0.05092764       0.26328338
20
Lattice="5.612310241546866 0.0 0.0 0.0 4.860403243099165 0.0 0.0 0.0 44.58243212332868" Properties=species:S:1:pos:R:3:tags:I:1:masses:R:1:momenta:R:3:forces:R:3 KEmax=25.851991011651638 iter=39201 volume=1216.1236359717223 set_wall=T ns_energy=-13.486774825911146 last_walked_iter_clone=39081 energy=-13.537194445386747 stress="0.024251671919174145 -0.0015445288259608892 -0.001267558478529631 -0.0015445288259608892 0.02470164461865922 0.0006091522407104781 -0.001267558478529631 0.0006091522407104781 0.012752967182863954" pbc="T T F"
H        1.40307756       0.81006721      20.00000000        3       1.00000000       0.00000000       0.00000000       0.00000000       0.00000000       0.00000000       0.00000000