20
Lattice="5.612310241546866 0.0 0.0 0.0 4.860403243099165 0.0 0.0 0.0 24.582432123328676" Properties=species:S:1:pos:R:3:tags:I:1:masses:R:1:momenta:R:3 KEmax=25.851991011651638 iter=99 volume=670.5618179858607 ns_energy=467.4989434649855 last_walked_iter_clone=47 ns_P=0.0 config_n_global=99 ns_KE=23.14016836415874 pbc="T T F"
H        1.40307756       0.81006721      10.00000000        3       1.00000000       0.00000000       0.00000000       0.00000000
H        4.20923268       0.81006721      10.00000000        3       1.00000000       0.00000000       0.00000000       0.00000000
H        0.00000000       3.24026883      10.00000000        3       1.00000000       0.00000000       0.00000000       0.00000000
H        2.80615512       3.24026883      10.00000000        3       1.00000000       0.00000000       0.00000000       0.00000000
H        0.00000000       1.62013441      12.29121606        2       1.00000000       0.00000000       0.00000000       0.00000000
H        2.80615512       1.62013441      12.29121606        2       1.00000000       0.00000000       0.00000000       0.00000000
H        1.40307756       4.05033604      12.29121606        2       1.00000000       0.00000000       0.00000000       0.00000000
H        4.20923268       4.05033604      12.29121606        2       1.00000000       0.00000000       0.00000000       0.00000000
H        0.00000000       0.00000000      14.58243212        1       1.00000000       0.00000000       0.00000000       0.00000000
H        2.80615512       0.00000000      14.58243212        1       1.00000000       0.00000000       0.00000000       0.00000000
H        1.40307756       2.43020162      14.58243212        1       1.00000000       0.00000000       0.00000000       0.00000000
H        4.20923268       2.43020162      14.58243212        1       1.00000000       0.00000000       0.00000000       0.00000000
H        5.34135041       0.63397725      17.42780795        0       1.00000000      -0.95180648      -0.63712421       0.21013310
H        0.33382343       0.97168935       4.20222882        0       1.00000000       1.11719067      -0.21700388       2.78077587
H        0.68772902       3.69458058      18.10065856        0       1.00000000      -0.38540781       0.62587245      -0.72681274
H        3.27095211       2.91201843       5.54774985        0       1.00000000      -1.90873747      -1.12735689       1.32675207
H        5.31765707       2.23809467      21.53138838        0       1.00000000       0.79114159      -1.36375563      -1.88745530
H        3.69094678       3.83314572       4.03509789        0       1.00000000      -0.34210759      -0.86225980      -2.92994382
H        0.23937866       2.59505007      18.82729426        0       1.00000000      -0.25679888       0.09565160       2.18403258
H        2.94038262       0.43204076       6.93816264        0       1.00000000       1.38081299      -1.39184678       1.99276310
20
Lattice="5.612310241546866 0.0 0.0 0.0 4.860403243099165 0.0 0.0 0.0 24.582432123328676" Properties=species:S:1:pos:R:3:tags:I:1:masses:R:1:momenta:R:3 KEmax=25.851991011651638 iter=199 volume=670.5618179858607 ns_energy=28.980556441396683 ns_P=0.0 config_n_global=199 ns_KE=7.5012021744836765 pbc="T T F"
H        1.40307756       0.81006721      10.00000000        3       1.00000000       0.00000000       0.00000000       0.00000000
H        4.20923268       0.81006721      10.00000000        3       1.00000000       0.00000000       0.00000000       0.00000000
H        0.00000000       3.24026883      10.00000000        3       1.00000000       0.00000000       0.00000000       0.00000000
H        2.80615512       3.24026883      10.00000000        3       1.00000000       0.00000000       0.00000000       0.00000000
H        0.00000000       1.62013441      12.29121606        2       1.00000000       0.00000000       0.00000000       0.00000000
H        2.80615512       1.62013441      12.29121606        2       1.00000000       0.00000000       0.00000000       0.00000000
H        1.40307756       4.05033604      12.29121606        2       1.00000000       0.00000000       0.00000000       0.00000000
H        4.20923268       4.05033604      12.29121606        2       1.00000000       0.00000000       0.00000000       0.00000000
H        0.00000000       0.00000000      14.58243212        1       1.00000000       0.00000000       0.00000000       0.00000000
H        2.80615512       0.00000000      14.58243212        1       1.00000000       0.00000000       0.00000000       0.00000000
H        1.40307756       2.43020162      14.58243212        1       1.00000000       0.00000000       0.00000000       0.00000000
H        4.20923268       2.43020162      14.58243212        1       1.00000000       0.00000000       0.00000000       0.00000000
H        0.48168097       4.10668497      16.66964981        0       1.00000000      -0.52496565      -0.86762127       0.59179560
H        2.06466084       4.62235518       7.59934340        0       1.00000000       1.26905223       0.06700762       0.43029823
H        3.12134120       1.16715453      18.97898369        0       1.00000000      -0.40170858      -0.31429096       0.15627390
H        4.16108843       3.27780596       7.61865237        0       1.00000000       1.50883131       0.49264415       0.53211513
H        1.24530743       3.11522754      20.68766340        0       1.00000000       1.06534032       0.65507160      -0.64352329
H        0.60101948       3.36447939       4.78294616        0       1.00000000       1.69965864      -0.08696598       0.05825903
H        4.48156075       0.94304205      20.39475292        0       1.00000000      -0.03132255       0.61576125      -0.16532656
H        2.19137656       3.87828045       4.25907515        0       1.00000000       0.39132654       1.67083323      -0.71162911
20
Lattice="5.612310241546866 0.0 0.0 0.0 4.860403243099165 0.0 0.0 0.0 24.582432123328676" Properties=species:S:1:pos:R:3:tags:I:1:masses:R:1:momenta:R:3 KEmax=25.851991011651638 iter=299 volume=670.5618179858607 ns_energy=17.585209782532846 last_walked_iter_clone=200 ns_P=0.0 config_n_global=299 ns_KE=24.057200885052048 pbc="T T F"
H        1.40307756       0.81006721      10.00000000        3       1.00000000       0.00000000       0.00000000       0.00000000
H        4.20923268       0.81006721      10.00000000        3       1.00000000       0.00000000       0.00000000       0.00000000
H        0.00000000       3.24026883      10.00000000        3       1.00000000       0.00000000       0.00000000       0.00000000
H        2.80615512       3.24026883      10.00000000        3       1.00000000       0.00000000       0.00000000       0.00000000
H        0.00000000       1.62013441      12.29121606        2       1.00000000       0.00000000       0.00000000       0.00000000
H        2.80615512       1.62013441      12.29121606        2       1.00000000       0.00000000       0.00000000       0.00000000
H        1.40307756       4.05033604      12.29121606        2       1.00000000       0.00000000       0.00000000       0.00000000
H        4.20923268       4.05033604      12.29121606        2       1.00000000       0.00000000       0.00000000       0.00000000
H        0.00000000       0.00000000      14.58243212        1       1.00000000       0.00000000       0.00000000       0.00000000
H        2.80615512       0.00000000      14.58243212        1       1.00000000       0.00000000       0.00000000       0.00000000
H        1.40307756       2.43020162      14.58243212        1       1.00000000       0.00000000       0.00000000       0.00000000
H        4.20923268       2.43020162      14.58243212        1       1.00000000       0.00000000       0.00000000       0.00000000
H        2.70777982       2.45518334      21.73244239        0       1.00000000       0.14382179      -0.55186873      -0.95739572
H        3.04295335       1.90542328       5.60250019        0       1.00000000       2.67633095      -2.53349087      -1.55698883
H        2.14234675       3.63003620      19.68512150        0       1.00000000      -0.38132004      -1.77635719      -0.05683791
H        5.60908732       1.54549353       6.94567315        0       1.00000000      -1.10518366      -0.11817949      -0.14659064
H        0.62032136       1.66633395      20.96455440        0       1.00000000       0.65497342      -1.51028667      -0.69259089
H        2.47487489       3.87683280       6.01057067        0       1.00000000       0.43425312      -2.08778698       1.40582174
H        1.65418075       1.90344757      17.28108047        0       1.00000000      -1.78111866      -2.68898632       1.99411199
H        4.01776369       1.86658102       2.86611023        0       1.00000000       1.35833820      -0.20006416      -0.57273214
20
Lattice="5.612310241546866 0.0 0.0 0.0 4.860403243099165 0.0 0.0 0.0 24.582432123328676" Properties=species:S:1:pos:R:3:tags:I:1:masses:R:1:momenta:R:3 KEmax=25.851991011651638 iter=399 volume=670.5618179858607 ns_energy=15.640958482667719 last_walked_iter_clone=339 ns_P=0.0 config_n_global=399 ns_KE=21.661293477240854 pbc="T T F"
H        1.40307756       0.81006721      10.00000000        3       1.00000000       0.00000000       0.00000000       0.00000000
H        4.20923268       0.81006721      10.00000000        3       1.00000000       0.00000000       0.00000000       0.00000000
H        0.00000000       3.24026883      10.00000000        3       1.00000000       0.00000000       0.00000000       0.00000000
H        2.80615512       3.24026883      10.00000000        3       1.00000000       0.00000000       0.00000000       0.00000000
H        0.00000000       1.62013441      12.29121606        2       1.00000000       0.00000000       0.00000000       0.00000000
H        2.80615512       1.62013441      12.29121606        2       1.00000000       0.00000000       0.00000000       0.00000000
H        1.40307756       4.05033604      12.29121606        2       1.00000000       0.00000000       0.00000000       0.00000000
H        4.20923268       4.05033604      12.29121606        2       1.00000000       0.00000000       0.00000000       0.00000000
H        0.00000000       0.00000000      14.58243212        1       1.00000000       0.00000000       0.00000000       0.00000000
H        2.80615512       0.00000000      14.58243212        1       1.00000000       0.00000000       0.00000000       0.00000000
H        1.40307756       2.43020162      14.58243212        1       1.00000000       0.00000000       0.00000000       0.00000000
H        4.20923268       2.43020162      14.58243212        1       1.00000000       0.00000000       0.00000000       0.00000000
H        1.78245376       4.20802279      17.10225818        0       1.00000000      -0.96933061       2.35639379      -0.88990266
H        2.43247675       3.22468002       3.83020202        0       1.00000000      -0.57732991       1.00621104      -1.54303780
H        0.26476371       0.97274153      22.31248350        0       1.00000000       1.51365098       1.62196666       2.25302972
H        2.42529512       3.92903181       1.21354231        0       1.00000000       0.15703893       1.39062221      -0.46649867
H        2.91804642       2.70044841      18.07826103        0       1.00000000      -1.62613681       0.71620402      -1.49944667
H        1.66525466       1.17651809       2.50594498        0       1.00000000       1.82759805       0.45112821      -0.43321201
H        3.79959755       0.88100540      16.37277875        0       1.00000000       0.79177522       0.42200603       2.27291729
H        4.92329586       4.27864038       8.10459831        0       1.00000000       0.83065492      -0.09903611       2.08079333
20
Lattice="5.612310241546866 0.0 0.0 0.0 4.860403243099165 0.0 0.0 0.0 24.582432123328676" Properties=species:S:1:pos:R:3:tags:I:1:masses:R:1:momenta:R:3 KEmax=25.851991011651638 iter=499 volume=670.5618179858607 ns_energy=14.157258648269394 last_walked_iter_clone=435 ns_P=0.0 config_n_global=499 ns_KE=23.03780976834457 pbc="T T F"
H        1.40307756       0.81006721      10.00000000        3       1.00000000       0.00000000       0.00000000       0.00000000
H        4.20923268       0.81006721      10.00000000        3       1.00000000       0.00000000       0.00000000       0.00000000
H        0.00000000       3.24026883      10.00000000        3       1.00000000       0.00000000       0.00000000       0.00000000
H        2.80615512       3.24026883      10.00000000        3       1.00000000       0.00000000       0.00000000       0.00000000
H        0.00000000       1.62013441      12.29121606        2       1.00000000       0.00000000       0.00000000       0.00000000
H        2.80615512       1.62013441      12.29121606        2       1.00000000       0.00000000       0.00000000       0.00000000
H        1.40307756       4.05033604      12.29121606        2       1.00000000       0.00000000       0.00000000       0.00000000
H        4.20923268       4.05033604      12.29121606        2       1.00000000       0.00000000       0.00000000       0.00000000
H        0.00000000       0.00000000      14.58243212        1       1.00000000       0.00000000       0.00000000       0.00000000
H        2.80615512       0.00000000      14.58243212        1       1.00000000       0.00000000       0.00000000       0.00000000
H        1.40307756       2.43020162      14.58243212        1       1.00000000       0.00000000       0.00000000       0.00000000
H        4.20923268       2.43020162      14.58243212        1       1.00000000       0.00000000       0.00000000       0.00000000
H        4.86673145       1.05280404      22.58500914        0       1.00000000       1.32605365       0.35677518      -2.07661601
H        4.46957043       4.35415264       7.54574749        0       1.00000000       1.45681615      -1.00781250       1.48035375
H        5.04759893       2.99804519      16.93531273        0       1.00000000      -0.74692718       2.10528050       0.32216498
H        3.28067159       3.58677936       0.75030554        0       1.00000000       0.23044935      -1.57178740       2.02205994
H        2.55222340       3.47725530      18.21635389        0       1.00000000      -0.65866943       1.77645177      -0.23933411
H        0.67628553       3.08169016       4.52717642        0       1.00000000      -0.80380396       3.50520976      -0.63492495
H        4.05717178       3.30876156      22.19098601        0       1.00000000       1.11006997       1.22063701       1.42932983
H        4.59515061       1.40741878       5.43408738        0       1.00000000       0.01643638       0.65206169       0.81768285
20
Lattice="5.612310241546866 0.0 0.0 0.0 4.860403243099165 0.0 0.0 0.0 24.582432123328676" Properties=species:S:1:pos:R:3:tags:I:1:masses:R:1:momenta:R:3 KEmax=25.851991011651638 iter=599 volume=670.5618179858607 ns_energy=12.787117249006151 last_walked_iter_clone=393 ns_P=0.0 config_n_global=599 ns_KE=21.80923698157982 pbc="T T F"
H        1.40307756       0.81006721      10.00000000        3       1.00000000       0.00000000       0.00000000       0.00000000
H        4.20923268       0.81006721      10.00000000        3       1.00000000       0.00000000       0.00000000       0.00000000
H        0.00000000       3.24026883      10.00000000        3       1.00000000       0.00000000       0.00000000       0.00000000
H        2.80615512       3.24026883      10.00000000        3       1.00000000       0.00000000       0.00000000       0.00000000
H        0.00000000       1.62013441      12.29121606        2       1.00000000       0.00000000       0.00000000       0.00000000
H        2.80615512       1.62013441      12.29121606        2       1.00000000       0.00000000       0.00000000       0.00000000
H        1.40307756       4.05033604      12.29121606        2       1.00000000       0.00000000       0.00000000       0.00000000
H        4.20923268       4.05033604      12.29121606        2       1.00000000       0.00000000       0.00000000       0.00000000
H        0.00000000       0.00000000      14.58243212        1       1.00000000       0.00000000       0.00000000       0.00000000
H        2.80615512       0.00000000      14.58243212        1       1.00000000       0.00000000       0.00000000       0.00000000
H        1.40307756       2.43020162      14.58243212        1       1.00000000       0.00000000       0.00000000       0.00000000
H        4.20923268       2.43020162      14.58243212        1       1.00000000       0.00000000       0.00000000       0.00000000
H        1.66164834       0.38065639      16.74834175        0       1.00000000      -0.91251228       2.65571395       1.49780395
H        0.76689500       0.29502958       7.70023812        0       1.00000000       0.20008706       0.05198719      -1.10528278
H        4.45239121       4.53811235      17.93441478        0       1.00000000       0.39744884      -0.86796147      -2.13360211
H        4.49655485       4.16182604       0.87720988        0       1.00000000       1.24247035      -0.07756817      -0.71562086
H        4.14371649       3.69970454      21.58146742        0       1.00000000      -0.95147780      -2.01812437      -1.62553405
H        0.26326447       0.10100231       3.44882791        0       1.00000000       2.85704402      -0.77414447      -1.15551682
H        1.84888385       2.41986153      20.38537871        0       1.00000000       0.90317599       0.16044468      -0.57619214
H        3.95111413       1.92877528       6.36288489        0       1.00000000       1.46304587       1.60657979       1.04256724
20
Lattice="5.612310241546866 0.0 0.0 0.0 4.860403243099165 0.0 0.0 0.0 24.582432123328676" Properties=species:S:1:pos:R:3:tags:I:1:masses:R:1:momenta:R:3 KEmax=25.851991011651638 iter=699 volume=670.5618179858607 ns_energy=11.516374458663186 last_walked_iter_clone=541 ns_P=0.0 config_n_global=699 ns_KE=16.245538105586785 pbc="T T F"
H        1.40307756       0.81006721      10.00000000        3       1.00000000       0.00000000       0.00000000       0.00000000
H        4.20923268       0.81006721      10.00000000        3       1.00000000       0.00000000       0.00000000       0.00000000
H        0.00000000       3.24026883      10.00000000        3       1.00000000       0.00000000       0.00000000       0.00000000
H        2.80615512       3.24026883      10.00000000        3       1.00000000       0.00000000       0.00000000       0.00000000
H        0.00000000       1.62013441      12.29121606        2       1.00000000       0.00000000       0.00000000       0.00000000
H        2.80615512       1.62013441      12.29121606        2       1.00000000       0.00000000       0.00000000       0.00000000
H        1.40307756       4.05033604      12.29121606        2       1.00000000       0.00000000       0.00000000       0.00000000
H        4.20923268       4.05033604      12.29121606        2       1.00000000       0.00000000       0.00000000       0.00000000
H        0.00000000       0.00000000      14.58243212        1       1.00000000       0.00000000       0.00000000       0.00000000
H        2.80615512       0.00000000      14.58243212        1       1.00000000       0.00000000       0.00000000       0.00000000
H        1.40307756       2.43020162      14.58243212        1       1.00000000       0.00000000       0.00000000       0.00000000
H        4.20923268       2.43020162      14.58243212        1       1.00000000       0.00000000       0.00000000       0.00000000
H        4.17278860       0.76486458      17.83964652        0       1.00000000      -0.95483787       0.21656194      -1.66028050
H        2.88646604       2.08029018       4.33208705        0       1.00000000      -0.73414214       0.08452722       0.24350220
H        4.21722526       1.60881096      24.19438635        0       1.00000000       1.14889807       1.55212427      -0.79778799
H        5.46526795       2.24345159       6.55367048        0       1.00000000       0.69679042       0.60440787       0.20131405
H        1.95243750       1.11499120      24.35296881        0       1.00000000      -0.07410216      -0.40021787      -1.26382144
H        4.67052934       0.54379500       2.05157772        0       1.00000000      -3.02135778      -2.74170773       0.57421021
H        2.70306954       1.99697001      17.18244528        0       1.00000000      -1.27213510       1.01937659      -0.91771967
H        2.86480848       2.20765164       1.43313293        0       1.00000000      -0.59908293      -0.10802687      -0.55247154
20
Lattice="5.612310241546866 0.0 0.0 0.0 4.860403243099165 0.0 0.0 0.0 24.582432123328676" Properties=species:S:1:pos:R:3:tags:I:1:masses:R:1:momenta:R:3 KEmax=25.851991011651638 iter=799 volume=670.5618179858607 ns_energy=10.406922198393985 last_walked_iter_clone=669 ns_P=0.0 config_n_global=799 ns_KE=18.94258175598226 pbc="T T F"
H        1.40307756       0.81006721      10.00000000        3       1.00000000       0.00000000       0.00000000       0.00000000
H        4.20923268       0.81006721      10.00000000        3       1.00000000       0.00000000       0.00000000       0.00000000
H        0.00000000       3.24026883      10.00000000        3       1.00000000       0.00000000       0.00000000       0.00000000
H        2.80615512       3.24026883      10.00000000        3       1.00000000       0.00000000       0.00000000       0.00000000
H        0.00000000       1.62013441      12.29121606        2       1.00000000       0.00000000       0.00000000       0.00000000
H        2.80615512       1.62013441      12.29121606        2       1.00000000       0.00000000       0.00000000       0.00000000
H        1.40307756       4.05033604      12.29121606        2       1.00000000       0.00000000       0.00000000       0.00000000
H        4.20923268       4.05033604      12.29121606        2       1.00000000       0.00000000       0.00000000       0.00000000
H        0.00000000       0.00000000      14.58243212        1       1.00000000       0.00000000       0.00000000       0.00000000
H        2.80615512       0.00000000      14.58243212        1       1.00000000       0.00000000       0.00000000       0.00000000
H        1.40307756       2.43020162      14.58243212        1       1.00000000       0.00000000       0.00000000       0.00000000
H        4.20923268       2.43020162      14.58243212        1       1.00000000       0.00000000       0.00000000       0.00000000
H        5.77341308       3.33789844      23.63926802        0       1.00000000       1.02560560      -2.75194211      -0.42307135
H        2.61879440       1.62912731       0.84579209        0       1.00000000      -0.77390383      -0.40186860       1.03460817
H        2.70035472       1.55355694      22.38644611        0       1.00000000      -1.41572872      -0.17036815       0.45649951
H        3.40351419       3.68440617       6.82388854        0       1.00000000      -0.77702404      -1.82542476       1.13074161
H        3.19156800       2.62979328      19.70547955        0       1.00000000       0.13344023       1.22934080      -0.94326438
H        4.85411314       1.14877697       3.27610297        0       1.00000000       0.61341025      -0.75597537      -0.33207857
H        1.00117362       3.62681005      21.38593216        0       1.00000000       1.00995599      -0.28618317       0.63024729
H        2.96812351       3.82465495       3.53209699        0       1.00000000       0.19319849       2.62931983       2.80488985
20
Lattice="5.612310241546866 0.0 0.0 0.0 4.860403243099165 0.0 0.0 0.0 24.582432123328676" Properties=species:S:1:pos:R:3:tags:I:1:masses:R:1:momenta:R:3 KEmax=25.851991011651638 iter=899 volume=670.5618179858607 ns_energy=9.234844930450501 last_walked_iter_clone=763 ns_P=0.0 config_n_global=899 ns_KE=17.61489449203457 pbc="T T F"
H        1.40307756       0.81006721      10.00000000        3       1.00000000       0.00000000       0.00000000       0.00000000
H        4.20923268       0.81006721      10.00000000        3       1.00000000       0.00000000       0.00000000       0.00000000
H        0.00000000       3.24026883      10.00000000        3       1.00000000       0.00000000       0.00000000       0.00000000
H        2.80615512       3.24026883      10.00000000        3       1.00000000       0.00000000       0.00000000       0.00000000
H        0.00000000       1.62013441      12.29121606        2       1.00000000       0.00000000       0.00000000       0.00000000
H        2.80615512       1.62013441      12.29121606        2       1.00000000       0.00000000       0.00000000       0.00000000
H        1.40307756       4.05033604      12.29121606        2       1.00000000       0.00000000       0.00000000       0.00000000
H        4.20923268       4.05033604      12.29121606        2       1.00000000       0.00000000       0.00000000       0.00000000
H        0.00000000       0.00000000      14.58243212        1       1.00000000       0.00000000       0.00000000       0.00000000
H        2.80615512       0.00000000      14.58243212        1       1.00000000       0.00000000       0.00000000       0.00000000
H        1.40307756       2.43020162      14.58243212        1       1.00000000       0.00000000       0.00000000       0.00000000
H        4.20923268       2.43020162      14.58243212        1       1.00000000       0.00000000       0.00000000       0.00000000
H        4.99419303       2.82009634      23.83353646        0       1.00000000      -1.62143351      -0.33097265       1.06058825
H        2.40962625       3.94368873       0.14669927        0       1.00000000      -1.21457335      -1.01444278       2.18433522
H        1.85284254       3.03648308      20.27991155        0       1.00000000       1.93144724       0.09684671      -2.30053070
H        2.50964799       1.30551850       6.28395457        0       1.00000000      -1.18657495       0.05487677       1.04831382
H        1.67096981       0.74553057      21.57332061        0       1.00000000       0.70626819      -0.39415404       0.52453103
H        3.34541350       1.33701382       0.69317607        0       1.00000000      -0.05416394       0.81037714       0.07979804
H        3.48331792       0.24746054      16.90614142        0       1.00000000      -1.18730256       2.36920210      -1.26344621
H        3.30529194       3.66374274       3.47213356        0       1.00000000       1.01340195      -0.63488989       0.95079857
20
Lattice="5.612310241546866 0.0 0.0 0.0 4.860403243099165 0.0 0.0 0.0 24.582432123328676" Properties=species:S:1:pos:R:3:tags:I:1:masses:R:1:momenta:R:3 KEmax=25.851991011651638 iter=999 volume=670.5618179858607 ns_energy=8.186869224015684 last_walked_iter_clone=899 ns_P=0.0 config_n_global=999 ns_KE=16.4015971164022 pbc="T T F"
H        1.40307756       0.81006721      10.00000000        3       1.00000000       0.00000000       0.00000000       0.00000000
H        4.20923268       0.81006721      10.00000000        3       1.00000000       0.00000000       0.00000000       0.00000000
H        0.00000000       3.24026883      10.00000000        3       1.00000000       0.00000000       0.00000000       0.00000000
H        2.80615512       3.24026883      10.00000000        3       1.00000000       0.00000000       0.00000000       0.00000000
H        0.00000000       1.62013441      12.29121606        2       1.00000000       0.00000000       0.00000000       0.00000000
H        2.80615512       1.62013441      12.29121606        2       1.00000000       0.00000000       0.00000000       0.00000000
H        1.40307756       4.05033604      12.29121606        2       1.00000000       0.00000000       0.00000000       0.00000000
H        4.20923268       4.05033604      12.29121606        2       1.00000000       0.00000000       0.00000000       0.00000000
H        0.00000000       0.00000000      14.58243212        1       1.00000000       0.00000000       0.00000000       0.00000000
H        2.80615512       0.00000000      14.58243212        1       1.00000000       0.00000000       0.00000000       0.00000000
H        1.40307756       2.43020162      14.58243212        1       1.00000000       0.00000000       0.00000000       0.00000000
H        4.20923268       2.43020162      14.58243212        1       1.00000000       0.00000000       0.00000000       0.00000000
H        1.61890066       0.47306595      17.70125075        0       1.00000000      -0.84799875      -1.11585754      -0.35478377
H        3.92425519       4.10477263       0.96800232        0       1.00000000      -1.26340817      -0.88640203      -1.93698792
H        2.66245879       2.20483253      21.04292286        0       1.00000000       0.85670159       1.03402240      -1.43819106
H        0.35667488       2.28164643       6.98505719        0       1.00000000       1.66806251      -0.52567354       1.27508725
H        0.86464024       1.96198427      23.83241401        0       1.00000000      -0.41337088       1.22051477       0.20912151
H        4.46775967       1.87892412       1.07558260        0       1.00000000       0.87467956      -1.82673697      -0.72924330
H        2.28692272       2.97582687      17.67906085        0       1.00000000       0.93571917       0.05594018       1.81404651
H        1.07678270       3.97819869       2.28134326        0       1.00000000      -2.09816407      -1.04254104      -0.16237396
20
Lattice="5.612310241546866 0.0 0.0 0.0 4.860403243099165 0.0 0.0 0.0 24.582432123328676" Properties=species:S:1:pos:R:3:tags:I:1:masses:R:1:momenta:R:3 KEmax=25.851991011651638 iter=1099 volume=670.5618179858607 ns_energy=7.134312126715953 last_walked_iter_clone=972 ns_P=0.0 config_n_global=1099 ns_KE=15.217817250260449 pbc="T T F"
H        1.40307756       0.81006721      10.00000000        3       1.00000000       0.00000000       0.00000000       0.00000000