20
Lattice="5.612310241546866 0.0 0.0 0.0 4.860403243099165 0.0 0.0 0.0 24.582432123328676" Properties=species:S:1:pos:R:3:tags:I:1:masses:R:1:momenta:R:3:forces:R:3 KEmax=25.851991011651638 iter=111451 volume=670.5618179858607 ns_energy=-13.620080613381527 last_walked_iter_clone=111301 energy=-13.620080613389657 stress="0.02572582307608379 8.922400965874703e-09 -1.4185592677542787e-08 8.922400965874703e-09 0.02572580231127875 -1.7617250751866524e-08 -1.4185592677542787e-08 -1.7617250751866524e-08 0.013286996822667523" pbc="T T F"
H        1.40307756       0.81006721      10.00000000        3       1.00000000       0.00000000       0.00000000       0.00000000       0.00000000       0.00000000       0.00000000
H        4.20923268       0.81006721      10.00000000        3       1.00000000       0.00000000       0.00000000       0.00000000       0.00000000       0.00000000       0.00000000
H        0.00000000       3.24026883      10.00000000        3       1.00000000       0.00000000       0.00000000       0.00000000       0.00000000       0.00000000       0.00000000
H        2.80615512       3.24026883      10.00000000        3       1.00000000       0.00000000       0.00000000       0.00000000       0.00000000       0.00000000       0.00000000
H        0.00000000       1.62013441      12.29121606        2       1.00000000       0.00000000       0.00000000       0.00000000       0.00000000       0.00000000       0.00000000
H        2.80615512       1.62013441      12.29121606        2       1.00000000       0.00000000       0.00000000       0.00000000       0.00000000       0.00000000       0.00000000
H        1.40307756       4.05033604      12.29121606        2       1.00000000       0.00000000       0.00000000       0.00000000       0.00000000       0.00000000       0.00000000
H        4.20923268       4.05033604      12.29121606        2       1.00000000       0.00000000       0.00000000       0.00000000       0.00000000       0.00000000       0.00000000
H        0.00000000       0.00000000      14.58243212        1       1.00000000       0.00000000       0.00000000       0.00000000       0.00000000       0.00000000       0.00000000
H        2.80615512       0.00000000      14.58243212        1       1.00000000       0.00000000       0.00000000       0.00000000       0.00000000       0.00000000       0.00000000
H        1.40307756       2.43020162      14.58243212        1       1.00000000       0.00000000       0.00000000       0.00000000       0.00000000       0.00000000       0.00000000
H        4.20923268       2.43020162      14.58243212        1       1.00000000       0.00000000       0.00000000       0.00000000       0.00000000       0.00000000       0.00000000
H        5.61231024       3.24026837      16.81070525        0       1.00000000       0.00000200       0.00000100       0.00000142       0.00000224      -0.00000107       0.00000437
H        2.80615574       1.62013480       7.77136608        0       1.00000000       0.00000075       0.00000102      -0.00000066      -0.00000247       0.00000129       0.00000177
H        4.20923200       0.81006746      16.81070432        0       1.00000000      -0.00000164       0.00000076      -0.00000174      -0.00000059       0.00000041      -0.00000129
H        4.20923309       4.05033635       7.77136662        0       1.00000000      -0.00000107      -0.00000054      -0.00000067       0.00000089      -0.00000379       0.00000225
H        1.40307731       0.81006759      16.81070479        0       1.00000000       0.00000086      -0.00000025       0.00000003      -0.00000096      -0.00000020      -0.00000053
H        1.40307853       4.05033582       7.77136734        0       1.00000000       0.00000069      -0.00000009      -0.00000057      -0.00000079      -0.00000243       0.00000283
H        2.80615525       3.24026842      16.81070504        0       1.00000000       0.00000134       0.00000006       0.00000014      -0.00000091       0.00000067       0.00000124
H        5.61231011       1.62013496       7.77136825        0       1.00000000      -0.00000039      -0.00000012       0.00000232       0.00000059       0.00000281      -0.00000039
20
Lattice="5.612310241546866 0.0 0.0 0.0 4.860403243099165 0.0 0.0 0.0 24.582432123328676" Properties=species:S:1:pos:R:3:tags:I:1:masses:R:1:momenta:R:3:forces:R:3 KEmax=25.851991011651638 iter=111451 volume=670.5618179858607 ns_energy=-13.620080613381516 last_walked_iter_clone=111347 energy=-13.620080613389657 stress="0.02572582307608379 8.922400965874703e-09 -1.4185592677542787e-08 8.922400965874703e-09 0.02572580231127875 -1.7617250751866524e-08 -1.4185592677542787e-08 -1.7617250751866524e-08 0.013286996822667523" pbc="T T F"
H        1.40307756       0.81006721      10.00000000        3       1.00000000       0.00000000       0.00000000       0.00000000       0.00000000       0.00000000       0.00000000
H        4.20923268       0.81006721      10.00000000        3       1.00000000       0.00000000       0.00000000       0.00000000       0.00000000       0.00000000       0.00000000
H        0.00000000       3.24026883      10.00000000        3       1.00000000       0.00000000       0.00000000       0.00000000       0.00000000       0.00000000       0.00000000
H        2.80615512       3.24026883      10.00000000        3       1.00000000       0.00000000       0.00000000       0.00000000       0.00000000       0.00000000       0.00000000
H        0.00000000       1.62013441      12.29121606        2       1.00000000       0.00000000       0.00000000       0.00000000       0.00000000       0.00000000       0.00000000
H        2.80615512       1.62013441      12.29121606        2       1.00000000       0.00000000       0.00000000       0.00000000       0.00000000       0.00000000       0.00000000
H        1.40307756       4.05033604      12.29121606        2       1.00000000       0.00000000       0.00000000       0.00000000       0.00000000       0.00000000       0.00000000
H        4.20923268       4.05033604      12.29121606        2       1.00000000       0.00000000       0.00000000       0.00000000       0.00000000       0.00000000       0.00000000
H        0.00000000       0.00000000      14.58243212        1       1.00000000       0.00000000       0.00000000       0.00000000       0.00000000       0.00000000       0.00000000
H        2.80615512       0.00000000      14.58243212        1       1.00000000       0.00000000       0.00000000       0.00000000       0.00000000       0.00000000       0.00000000
H        1.40307756       2.43020162      14.58243212        1       1.00000000       0.00000000       0.00000000       0.00000000       0.00000000       0.00000000       0.00000000
H        4.20923268       2.43020162      14.58243212        1       1.00000000       0.00000000       0.00000000       0.00000000       0.00000000       0.00000000       0.00000000
H        0.00000013       3.24026878      16.81070567        0       1.00000000      -0.00000156      -0.00000038       0.00000010       0.00000224      -0.00000107       0.00000437
H        2.80615462       1.62013386       7.77136745        0       1.00000000      -0.00000023      -0.00000185       0.00000062      -0.00000247       0.00000129       0.00000177
H        4.20923334       0.81006781      16.81070487        0       1.00000000       0.00000109       0.00000328      -0.00000066      -0.00000059       0.00000041      -0.00000129
H        4.20923299       4.05033605       7.77136787        0       1.00000000       0.00000014      -0.00000008      -0.00000101       0.00000089      -0.00000379       0.00000225
H        1.40307733       0.81006660      16.81070513        0       1.00000000      -0.00000040      -0.00000177       0.00000015      -0.00000096      -0.00000020      -0.00000053
H        1.40307810       4.05033518       7.77136748        0       1.00000000      -0.00000047      -0.00000127       0.00000015      -0.00000079      -0.00000243       0.00000283
H        2.80615464       3.24026869      16.81070519        0       1.00000000      -0.00000038      -0.00000109       0.00000068      -0.00000091       0.00000067       0.00000124
H       -0.00000016       1.62013419       7.77136735        0       1.00000000      -0.00000158      -0.00000144       0.00000054       0.00000059       0.00000281      -0.00000039
20
Lattice="5.612310241546866 0.0 0.0 0.0 4.860403243099165 0.0 0.0 0.0 24.582432123328676" Properties=species:S:1:pos:R:3:tags:I:1:masses:R:1:momenta:R:3:forces:R:3 KEmax=25.851991011651638 iter=111451 volume=670.5618179858607 ns_energy=-13.620080613381543 last_walked_iter_clone=111307 energy=-13.620080613389657 stress="0.02572582307608379 8.922400965874703e-09 -1.4185592677542787e-08 8.922400965874703e-09 0.02572580231127875 -1.7617250751866524e-08 -1.4185592677542787e-08 -1.7617250751866524e-08 0.013286996822667523" pbc="T T F"
H        1.40307756       0.81006721      10.00000000        3       1.00000000       0.00000000       0.00000000       0.00000000       0.00000000       0.00000000       0.00000000
H        4.20923268       0.81006721      10.00000000        3       1.00000000       0.00000000       0.00000000       0.00000000       0.00000000       0.00000000       0.00000000
H        0.00000000       3.24026883      10.00000000        3       1.00000000       0.00000000       0.00000000       0.00000000       0.00000000       0.00000000       0.00000000
H        2.80615512       3.24026883      10.00000000        3       1.00000000       0.00000000       0.00000000       0.00000000       0.00000000       0.00000000       0.00000000
H        0.00000000       1.62013441      12.29121606        2       1.00000000       0.00000000       0.00000000       0.00000000       0.00000000       0.00000000       0.00000000
H        2.80615512       1.62013441      12.29121606        2       1.00000000       0.00000000       0.00000000       0.00000000       0.00000000       0.00000000       0.00000000
H        1.40307756       4.05033604      12.29121606        2       1.00000000       0.00000000       0.00000000       0.00000000       0.00000000       0.00000000       0.00000000
H        4.20923268       4.05033604      12.29121606        2       1.00000000       0.00000000       0.00000000       0.00000000       0.00000000       0.00000000       0.00000000
H        0.00000000       0.00000000      14.58243212        1       1.00000000       0.00000000       0.00000000       0.00000000       0.00000000       0.00000000       0.00000000
H        2.80615512       0.00000000      14.58243212        1       1.00000000       0.00000000       0.00000000       0.00000000       0.00000000       0.00000000       0.00000000
H        1.40307756       2.43020162      14.58243212        1       1.00000000       0.00000000       0.00000000       0.00000000       0.00000000       0.00000000       0.00000000
H        4.20923268       2.43020162      14.58243212        1       1.00000000       0.00000000       0.00000000       0.00000000       0.00000000       0.00000000       0.00000000
H        0.00000034       3.24026758      16.81070463        0       1.00000000       0.00000048      -0.00000005      -0.00000079       0.00000224      -0.00000107       0.00000437
H        2.80615354       1.62013414       7.77136710        0       1.00000000      -0.00000026       0.00000068       0.00000065      -0.00000247       0.00000129       0.00000177
H        4.20923272       0.81006752      16.81070536        0       1.00000000      -0.00000128      -0.00000004       0.00000119      -0.00000059       0.00000041      -0.00000129
H        4.20923283       4.05033552       7.77136703        0       1.00000000      -0.00000110      -0.00000009       0.00000116       0.00000089      -0.00000379       0.00000225
H        1.40307810       0.81006593      16.81070526        0       1.00000000      -0.00000029       0.00000017      -0.00000011      -0.00000096      -0.00000020      -0.00000053
H        1.40307648       4.05033608       7.77136792        0       1.00000000       0.00000017       0.00000160       0.00000000      -0.00000079      -0.00000243       0.00000283
H        2.80615518       3.24026799      16.81070603        0       1.00000000       0.00000130       0.00000022       0.00000071      -0.00000091       0.00000067       0.00000124
H       -0.00000072       1.62013412       7.77136623        0       1.00000000       0.00000041      -0.00000141      -0.00000209       0.00000059       0.00000281      -0.00000039
20
Lattice="5.612310241546866 0.0 0.0 0.0 4.860403243099165 0.0 0.0 0.0 24.582432123328676" Properties=species:S:1:pos:R:3:tags:I:1:masses:R:1:momenta:R:3:forces:R:3 KEmax=25.851991011651638 iter=111451 volume=670.5618179858607 ns_energy=-13.620080613381093 last_walked_iter_clone=111303 energy=-13.620080613389657 stress="0.02572582307608379 8.922400965874703e-09 -1.4185592677542787e-08 8.922400965874703e-09 0.02572580231127875 -1.7617250751866524e-08 -1.4185592677542787e-08 -1.7617250751866524e-08 0.013286996822667523" pbc="T T F"
H        1.40307756       0.81006721      10.00000000        3       1.00000000       0.00000000       0.00000000       0.00000000       0.00000000       0.00000000       0.00000000
H        4.20923268       0.81006721      10.00000000        3       1.00000000       0.00000000       0.00000000       0.00000000       0.00000000       0.00000000       0.00000000
H        0.00000000       3.24026883      10.00000000        3       1.00000000       0.00000000       0.00000000       0.00000000       0.00000000       0.00000000       0.00000000
H        2.80615512       3.24026883      10.00000000        3       1.00000000       0.00000000       0.00000000       0.00000000       0.00000000       0.00000000       0.00000000
H        0.00000000       1.62013441      12.29121606        2       1.00000000       0.00000000       0.00000000       0.00000000       0.00000000       0.00000000       0.00000000
H        2.80615512       1.62013441      12.29121606        2       1.00000000       0.00000000       0.00000000       0.00000000       0.00000000       0.00000000       0.00000000
H        1.40307756       4.05033604      12.29121606        2       1.00000000       0.00000000       0.00000000       0.00000000       0.00000000       0.00000000       0.00000000
H        4.20923268       4.05033604      12.29121606        2       1.00000000       0.00000000       0.00000000       0.00000000       0.00000000       0.00000000       0.00000000
H        0.00000000       0.00000000      14.58243212        1       1.00000000       0.00000000       0.00000000       0.00000000       0.00000000       0.00000000       0.00000000
H        2.80615512       0.00000000      14.58243212        1       1.00000000       0.00000000       0.00000000       0.00000000       0.00000000       0.00000000       0.00000000
H        1.40307756       2.43020162      14.58243212        1       1.00000000       0.00000000       0.00000000       0.00000000       0.00000000       0.00000000       0.00000000
H        4.20923268       2.43020162      14.58243212        1       1.00000000       0.00000000       0.00000000       0.00000000       0.00000000       0.00000000       0.00000000
H       -0.00000146       3.24026866      16.81070459        0       1.00000000       0.00000152      -0.00000095       0.00000139       0.00000224      -0.00000107       0.00000437
H        2.80615528       1.62013456       7.77136709        0       1.00000000       0.00000056       0.00000013      -0.00000000      -0.00000247       0.00000129       0.00000177
H        4.20923104       0.81006735      16.81070555        0       1.00000000       0.00000203       0.00000164      -0.00000051      -0.00000059       0.00000041      -0.00000129
H        4.20923232       4.05033572       7.77136713        0       1.00000000      -0.00000139       0.00000093      -0.00000008       0.00000089      -0.00000379       0.00000225
H        1.40307706       0.81006716      16.81070510        0       1.00000000      -0.00000197       0.00000160      -0.00000015      -0.00000096      -0.00000020      -0.00000053
H        1.40307793       4.05033634       7.77136764        0       1.00000000       0.00000017      -0.00000150      -0.00000131      -0.00000079      -0.00000243       0.00000283
H        2.80615412       3.24026967      16.81070480        0       1.00000000      -0.00000004      -0.00000138       0.00000044      -0.00000091       0.00000067       0.00000124
H        5.61230990       1.62013454       7.77136717        0       1.00000000       0.00000133       0.00000092      -0.00000036       0.00000059       0.00000281      -0.00000039
20
Lattice="5.612310241546866 0.0 0.0 0.0 4.860403243099165 0.0 0.0 0.0 24.582432123328676" Properties=species:S:1:pos:R:3:tags:I:1:masses:R:1:momenta:R:3:forces:R:3 KEmax=25.851991011651638 iter=111451 volume=670.5618179858607 ns_energy=-13.620080613381349 last_walked_iter_clone=111358 energy=-13.620080613389657 stress="0.02572582307608379 8.922400965874703e-09 -1.4185592677542787e-08 8.922400965874703e-09 0.02572580231127875 -1.7617250751866524e-08 -1.4185592677542787e-08 -1.7617250751866524e-08 0.013286996822667523" pbc="T T F"
H        1.40307756       0.81006721      10.00000000        3       1.00000000       0.00000000       0.00000000       0.00000000       0.00000000       0.00000000       0.00000000
H        4.20923268       0.81006721      10.00000000        3       1.00000000       0.00000000       0.00000000       0.00000000       0.00000000       0.00000000       0.00000000
H        0.00000000       3.24026883      10.00000000        3       1.00000000       0.00000000       0.00000000       0.00000000       0.00000000       0.00000000       0.00000000
H        2.80615512       3.24026883      10.00000000        3       1.00000000       0.00000000       0.00000000       0.00000000       0.00000000       0.00000000       0.00000000
H        0.00000000       1.62013441      12.29121606        2       1.00000000       0.00000000       0.00000000       0.00000000       0.00000000       0.00000000       0.00000000
H        2.80615512       1.62013441      12.29121606        2       1.00000000       0.00000000       0.00000000       0.00000000       0.00000000       0.00000000       0.00000000
H        1.40307756       4.05033604      12.29121606        2       1.00000000       0.00000000       0.00000000       0.00000000       0.00000000       0.00000000       0.00000000
H        4.20923268       4.05033604      12.29121606        2       1.00000000       0.00000000       0.00000000       0.00000000       0.00000000       0.00000000       0.00000000
H        0.00000000       0.00000000      14.58243212        1       1.00000000       0.00000000       0.00000000       0.00000000       0.00000000       0.00000000       0.00000000
H        2.80615512       0.00000000      14.58243212        1       1.00000000       0.00000000       0.00000000       0.00000000       0.00000000       0.00000000       0.00000000
H        1.40307756       2.43020162      14.58243212        1       1.00000000       0.00000000       0.00000000       0.00000000       0.00000000       0.00000000       0.00000000
H        4.20923268       2.43020162      14.58243212        1       1.00000000       0.00000000       0.00000000       0.00000000       0.00000000       0.00000000       0.00000000
H        5.61230993       3.24026979      16.81070537        0       1.00000000       0.00000065       0.00000103       0.00000105       0.00000224      -0.00000107       0.00000437
H        2.80615587       1.62013500       7.77136616        0       1.00000000       0.00000093      -0.00000005       0.00000057      -0.00000247       0.00000129       0.00000177
H        4.20923250       0.81006668      16.81070459        0       1.00000000      -0.00000062       0.00000132      -0.00000143      -0.00000059       0.00000041      -0.00000129
H        4.20923328       4.05033746       7.77136775        0       1.00000000      -0.00000078      -0.00000137      -0.00000079       0.00000089      -0.00000379       0.00000225
H        1.40307687       0.81006821      16.81070442        0       1.00000000      -0.00000130      -0.00000061       0.00000094      -0.00000096      -0.00000020      -0.00000053
H        1.40307897       4.05033655       7.77136675        0       1.00000000      -0.00000044       0.00000045       0.00000012      -0.00000079      -0.00000243       0.00000283
H        2.80615415       3.24026991      16.81070550        0       1.00000000       0.00000010      -0.00000120       0.00000002      -0.00000091       0.00000067       0.00000124
H        5.61231102       1.62013563       7.77136746        0       1.00000000       0.00000134       0.00000044      -0.00000084       0.00000059       0.00000281      -0.00000039
20
Lattice="5.612310241546866 0.0 0.0 0.0 4.860403243099165 0.0 0.0 0.0 24.582432123328676" Properties=species:S:1:pos:R:3:tags:I:1:masses:R:1:momenta:R:3:forces:R:3 KEmax=25.851991011651638 iter=111451 volume=670.5618179858607 ns_energy=-13.620080613381642 last_walked_iter_clone=111390 energy=-13.620080613389657 stress="0.02572582307608379 8.922400965874703e-09 -1.4185592677542787e-08 8.922400965874703e-09 0.02572580231127875 -1.7617250751866524e-08 -1.4185592677542787e-08 -1.7617250751866524e-08 0.013286996822667523" pbc="T T F"
H        1.40307756       0.81006721      10.00000000        3       1.00000000       0.00000000       0.00000000       0.00000000       0.00000000       0.00000000       0.00000000
H        4.20923268       0.81006721      10.00000000        3       1.00000000       0.00000000       0.00000000       0.00000000       0.00000000       0.00000000       0.00000000
H        0.00000000       3.24026883      10.00000000        3       1.00000000       0.00000000       0.00000000       0.00000000       0.00000000       0.00000000       0.00000000
H        2.80615512       3.24026883      10.00000000        3       1.00000000       0.00000000       0.00000000       0.00000000       0.00000000       0.00000000       0.00000000
H        0.00000000       1.62013441      12.29121606        2       1.00000000       0.00000000       0.00000000       0.00000000       0.00000000       0.00000000       0.00000000
H        2.80615512       1.62013441      12.29121606        2       1.00000000       0.00000000       0.00000000       0.00000000       0.00000000       0.00000000       0.00000000
H        1.40307756       4.05033604      12.29121606        2       1.00000000       0.00000000       0.00000000       0.00000000       0.00000000       0.00000000       0.00000000
H        4.20923268       4.05033604      12.29121606        2       1.00000000       0.00000000       0.00000000       0.00000000       0.00000000       0.00000000       0.00000000
H        0.00000000       0.00000000      14.58243212        1       1.00000000       0.00000000       0.00000000       0.00000000       0.00000000       0.00000000       0.00000000
H        2.80615512       0.00000000      14.58243212        1       1.00000000       0.00000000       0.00000000       0.00000000       0.00000000       0.00000000       0.00000000
H        1.40307756       2.43020162      14.58243212        1       1.00000000       0.00000000       0.00000000       0.00000000       0.00000000       0.00000000       0.00000000
H        4.20923268       2.43020162      14.58243212        1       1.00000000       0.00000000       0.00000000       0.00000000       0.00000000       0.00000000       0.00000000
H        5.61231053       3.24026931      16.81070428        0       1.00000000      -0.00000005       0.00000007      -0.00000069       0.00000224      -0.00000107       0.00000437
H        2.80615550       1.62013485       7.77136627        0       1.00000000      -0.00000012       0.00000047       0.00000027      -0.00000247       0.00000129       0.00000177
H        4.20923257       0.81006751      16.81070467        0       1.00000000       0.00000035      -0.00000228       0.00000016      -0.00000059       0.00000041      -0.00000129
H        4.20923189       4.05033505       7.77136719        0       1.00000000      -0.00000124      -0.00000089      -0.00000043       0.00000089      -0.00000379       0.00000225
H        1.40307755       0.81006697      16.81070554        0       1.00000000       0.00000040       0.00000187      -0.00000009      -0.00000096      -0.00000020      -0.00000053
H        1.40307665       4.05033635       7.77136574        0       1.00000000      -0.00000005      -0.00000176       0.00000002      -0.00000079      -0.00000243       0.00000283
H        2.80615481       3.24026791      16.81070462        0       1.00000000      -0.00000025       0.00000081      -0.00000124      -0.00000091       0.00000067       0.00000124
H        0.00000069       1.62013427       7.77136715        0       1.00000000       0.00000043       0.00000124       0.00000011       0.00000059       0.00000281      -0.00000039
20
Lattice="5.612310241546866 0.0 0.0 0.0 4.860403243099165 0.0 0.0 0.0 24.582432123328676" Properties=species:S:1:pos:R:3:tags:I:1:masses:R:1:momenta:R:3:forces:R:3 KEmax=25.851991011651638 iter=111451 volume=670.5618179858607 ns_energy=-13.62008061338161 last_walked_iter_clone=111370 energy=-13.620080613389657 stress="0.02572582307608379 8.922400965874703e-09 -1.4185592677542787e-08 8.922400965874703e-09 0.02572580231127875 -1.7617250751866524e-08 -1.4185592677542787e-08 -1.7617250751866524e-08 0.013286996822667523" pbc="T T F"
H        1.40307756       0.81006721      10.00000000        3       1.00000000       0.00000000       0.00000000       0.00000000       0.00000000       0.00000000       0.00000000
H        4.20923268       0.81006721      10.00000000        3       1.00000000       0.00000000       0.00000000       0.00000000       0.00000000       0.00000000       0.00000000
H        0.00000000       3.24026883      10.00000000        3       1.00000000       0.00000000       0.00000000       0.00000000       0.00000000       0.00000000       0.00000000
H        2.80615512       3.24026883      10.00000000        3       1.00000000       0.00000000       0.00000000       0.00000000       0.00000000       0.00000000       0.00000000
H        0.00000000       1.62013441      12.29121606        2       1.00000000       0.00000000       0.00000000       0.00000000       0.00000000       0.00000000       0.00000000
H        2.80615512       1.62013441      12.29121606        2       1.00000000       0.00000000       0.00000000       0.00000000       0.00000000       0.00000000       0.00000000
H        1.40307756       4.05033604      12.29121606        2       1.00000000       0.00000000       0.00000000       0.00000000       0.00000000       0.00000000       0.00000000
H        4.20923268       4.05033604      12.29121606        2       1.00000000       0.00000000       0.00000000       0.00000000       0.00000000       0.00000000       0.00000000
H        0.00000000       0.00000000      14.58243212        1       1.00000000       0.00000000       0.00000000       0.00000000       0.00000000       0.00000000       0.00000000
H        2.80615512       0.00000000      14.58243212        1       1.00000000       0.00000000       0.00000000       0.00000000       0.00000000       0.00000000       0.00000000
H        1.40307756       2.43020162      14.58243212        1       1.00000000       0.00000000       0.00000000       0.00000000       0.00000000       0.00000000       0.00000000
H        4.20923268       2.43020162      14.58243212        1       1.00000000       0.00000000       0.00000000       0.00000000       0.00000000       0.00000000       0.00000000
H        5.61231052       3.24026951      16.81070476        0       1.00000000       0.00000190      -0.00000093      -0.00000104       0.00000224      -0.00000107       0.00000437
H        2.80615429       1.62013326       7.77136824        0       1.00000000      -0.00000230      -0.00000073       0.00000032      -0.00000247       0.00000129       0.00000177
H        4.20923231       0.81006770      16.81070524        0       1.00000000      -0.00000101      -0.00000038      -0.00000182      -0.00000059       0.00000041      -0.00000129
H        4.20923240       4.05033478       7.77136680        0       1.00000000      -0.00000009       0.00000108      -0.00000006       0.00000089      -0.00000379       0.00000225
H        1.40307675       0.81006722      16.81070428        0       1.00000000       0.00000092       0.00000064       0.00000003      -0.00000096      -0.00000020      -0.00000053
H        1.40307790       4.05033472       7.77136678        0       1.00000000       0.00000140       0.00000020      -0.00000023      -0.00000079      -0.00000243       0.00000283
H        2.80615524       3.24026848      16.81070413        0       1.00000000       0.00000012      -0.00000021       0.00000160      -0.00000091       0.00000067       0.00000124
H       -0.00000025       1.62013320       7.77136665        0       1.00000000      -0.00000131      -0.00000052       0.00000029       0.00000059       0.00000281      -0.00000039
20
Lattice="5.612310241546866 0.0 0.0 0.0 4.860403243099165 0.0 0.0 0.0 24.582432123328676" Properties=species:S:1:pos:R:3:tags:I:1:masses:R:1:momenta:R:3:forces:R:3 KEmax=25.851991011651638 iter=111451 volume=670.5618179858607 ns_energy=-13.620080613381392 last_walked_iter_clone=111382 energy=-13.620080613389657 stress="0.02572582307608379 8.922400965874703e-09 -1.4185592677542787e-08 8.922400965874703e-09 0.02572580231127875 -1.7617250751866524e-08 -1.4185592677542787e-08 -1.7617250751866524e-08 0.013286996822667523" pbc="T T F"
H        1.40307756       0.81006721      10.00000000        3       1.00000000       0.00000000       0.00000000       0.00000000       0.00000000       0.00000000       0.00000000