20
Lattice="5.612310241546866 0.0 0.0 0.0 4.860403243099165 0.0 0.0 0.0 24.582432123328676" Properties=species:S:1:pos:R:3:tags:I:1:masses:R:1:momenta:R:3:forces:R:3 KEmax=25.851991011651638 iter=119999 volume=670.5618179858607 ns_energy=-13.620080613390941 last_walked_iter_clone=119143 energy=-13.620080613395613 stress="0.025725804745187507 -7.989202261394599e-09 7.095881198537749e-09 -7.989202261394599e-09 0.025725801637501607 -3.3807455910284526e-08 7.095881198537749e-09 -3.3807455910284526e-08 0.01328694712204136" pbc="T T F"
H        1.40307756       0.81006721      10.00000000        3       1.00000000       0.00000000       0.00000000       0.00000000       0.00000000       0.00000000       0.00000000
H        4.20923268       0.81006721      10.00000000        3       1.00000000       0.00000000       0.00000000       0.00000000       0.00000000       0.00000000       0.00000000
H        0.00000000       3.24026883      10.00000000        3       1.00000000       0.00000000       0.00000000       0.00000000       0.00000000       0.00000000       0.00000000
H        2.80615512       3.24026883      10.00000000        3       1.00000000       0.00000000       0.00000000       0.00000000       0.00000000       0.00000000       0.00000000
H        0.00000000       1.62013441      12.29121606        2       1.00000000       0.00000000       0.00000000       0.00000000       0.00000000       0.00000000       0.00000000
H        2.80615512       1.62013441      12.29121606        2       1.00000000       0.00000000       0.00000000       0.00000000       0.00000000       0.00000000       0.00000000
H        1.40307756       4.05033604      12.29121606        2       1.00000000       0.00000000       0.00000000       0.00000000       0.00000000       0.00000000       0.00000000
H        4.20923268       4.05033604      12.29121606        2       1.00000000       0.00000000       0.00000000       0.00000000       0.00000000       0.00000000       0.00000000
H        0.00000000       0.00000000      14.58243212        1       1.00000000       0.00000000       0.00000000       0.00000000       0.00000000       0.00000000       0.00000000
H        2.80615512       0.00000000      14.58243212        1       1.00000000       0.00000000       0.00000000       0.00000000       0.00000000       0.00000000       0.00000000
H        1.40307756       2.43020162      14.58243212        1       1.00000000       0.00000000       0.00000000       0.00000000       0.00000000       0.00000000       0.00000000
H        4.20923268       2.43020162      14.58243212        1       1.00000000       0.00000000       0.00000000       0.00000000       0.00000000       0.00000000       0.00000000
H        5.61230951       3.24026900      16.81070538        0       1.00000000      -0.00000111      -0.00000006      -0.00000167      -0.00000074       0.00000053      -0.00000032
H        2.80615518       1.62013441       7.77136763        0       1.00000000      -0.00000174       0.00000035      -0.00000041      -0.00000175       0.00000061      -0.00000161
H        4.20923177       0.81006703      16.81070518        0       1.00000000      -0.00000012      -0.00000075       0.00000092       0.00000265      -0.00000111       0.00000048
H        4.20923333       4.05033602       7.77136724        0       1.00000000      -0.00000054      -0.00000099      -0.00000030       0.00000451      -0.00000026      -0.00000015
H        1.40307706       0.81006755      16.81070476        0       1.00000000       0.00000048       0.00000066      -0.00000001      -0.00000161       0.00000070       0.00000002
H        1.40307838       4.05033599       7.77136647        0       1.00000000       0.00000033       0.00000021       0.00000094      -0.00000269      -0.00000153      -0.00000028
H        2.80615482       3.24026901      16.81070540        0       1.00000000       0.00000030       0.00000020       0.00000054       0.00000019       0.00000157      -0.00000040
H        0.00000005       1.62013444       7.77136778        0       1.00000000       0.00000032      -0.00000224       0.00000064       0.00000121      -0.00000085      -0.00000129
20
Lattice="5.612310241546866 0.0 0.0 0.0 4.860403243099165 0.0 0.0 0.0 24.582432123328676" Properties=species:S:1:pos:R:3:tags:I:1:masses:R:1:momenta:R:3:forces:R:3 KEmax=25.851991011651638 iter=119999 volume=670.5618179858607 ns_energy=-13.620080613391208 last_walked_iter_clone=119421 energy=-13.620080613395613 stress="0.025725804745187507 -7.989202261394599e-09 7.095881198537749e-09 -7.989202261394599e-09 0.025725801637501607 -3.3807455910284526e-08 7.095881198537749e-09 -3.3807455910284526e-08 0.01328694712204136" pbc="T T F"
H        1.40307756       0.81006721      10.00000000        3       1.00000000       0.00000000       0.00000000       0.00000000       0.00000000       0.00000000       0.00000000
H        4.20923268       0.81006721      10.00000000        3       1.00000000       0.00000000       0.00000000       0.00000000       0.00000000       0.00000000       0.00000000
H        0.00000000       3.24026883      10.00000000        3       1.00000000       0.00000000       0.00000000       0.00000000       0.00000000       0.00000000       0.00000000
H        2.80615512       3.24026883      10.00000000        3       1.00000000       0.00000000       0.00000000       0.00000000       0.00000000       0.00000000       0.00000000
H        0.00000000       1.62013441      12.29121606        2       1.00000000       0.00000000       0.00000000       0.00000000       0.00000000       0.00000000       0.00000000
H        2.80615512       1.62013441      12.29121606        2       1.00000000       0.00000000       0.00000000       0.00000000       0.00000000       0.00000000       0.00000000
H        1.40307756       4.05033604      12.29121606        2       1.00000000       0.00000000       0.00000000       0.00000000       0.00000000       0.00000000       0.00000000
H        4.20923268       4.05033604      12.29121606        2       1.00000000       0.00000000       0.00000000       0.00000000       0.00000000       0.00000000       0.00000000
H        0.00000000       0.00000000      14.58243212        1       1.00000000       0.00000000       0.00000000       0.00000000       0.00000000       0.00000000       0.00000000
H        2.80615512       0.00000000      14.58243212        1       1.00000000       0.00000000       0.00000000       0.00000000       0.00000000       0.00000000       0.00000000
H        1.40307756       2.43020162      14.58243212        1       1.00000000       0.00000000       0.00000000       0.00000000       0.00000000       0.00000000       0.00000000
H        4.20923268       2.43020162      14.58243212        1       1.00000000       0.00000000       0.00000000       0.00000000       0.00000000       0.00000000       0.00000000
H        0.00000068       3.24026872      16.81070543        0       1.00000000       0.00000030       0.00000005      -0.00000057      -0.00000074       0.00000053      -0.00000032
H        2.80615413       1.62013432       7.77136741        0       1.00000000       0.00000084      -0.00000001      -0.00000040      -0.00000175       0.00000061      -0.00000161
H        4.20923262       0.81006722      16.81070514        0       1.00000000      -0.00000041       0.00000011       0.00000018       0.00000265      -0.00000111       0.00000048
H        4.20923278       4.05033550       7.77136738        0       1.00000000      -0.00000001      -0.00000008       0.00000064       0.00000451      -0.00000026      -0.00000015
H        1.40307781       0.81006659      16.81070447        0       1.00000000      -0.00000139      -0.00000052       0.00000063      -0.00000161       0.00000070       0.00000002
H        1.40307785       4.05033587       7.77136787        0       1.00000000       0.00000203       0.00000180      -0.00000010      -0.00000269      -0.00000153      -0.00000028
H        2.80615557       3.24026801      16.81070544        0       1.00000000      -0.00000080       0.00000007      -0.00000009       0.00000019       0.00000157      -0.00000040
H        5.61230925       1.62013398       7.77136678        0       1.00000000       0.00000099      -0.00000040       0.00000010       0.00000121      -0.00000085      -0.00000129
20
Lattice="5.612310241546866 0.0 0.0 0.0 4.860403243099165 0.0 0.0 0.0 24.582432123328676" Properties=species:S:1:pos:R:3:tags:I:1:masses:R:1:momenta:R:3:forces:R:3 KEmax=25.851991011651638 iter=119999 volume=670.5618179858607 ns_energy=-13.620080613391071 last_walked_iter_clone=119809 energy=-13.620080613395613 stress="0.025725804745187507 -7.989202261394599e-09 7.095881198537749e-09 -7.989202261394599e-09 0.025725801637501607 -3.3807455910284526e-08 7.095881198537749e-09 -3.3807455910284526e-08 0.01328694712204136" pbc="T T F"
H        1.40307756       0.81006721      10.00000000        3       1.00000000       0.00000000       0.00000000       0.00000000       0.00000000       0.00000000       0.00000000
H        4.20923268       0.81006721      10.00000000        3       1.00000000       0.00000000       0.00000000       0.00000000       0.00000000       0.00000000       0.00000000
H        0.00000000       3.24026883      10.00000000        3       1.00000000       0.00000000       0.00000000       0.00000000       0.00000000       0.00000000       0.00000000
H        2.80615512       3.24026883      10.00000000        3       1.00000000       0.00000000       0.00000000       0.00000000       0.00000000       0.00000000       0.00000000
H        0.00000000       1.62013441      12.29121606        2       1.00000000       0.00000000       0.00000000       0.00000000       0.00000000       0.00000000       0.00000000
H        2.80615512       1.62013441      12.29121606        2       1.00000000       0.00000000       0.00000000       0.00000000       0.00000000       0.00000000       0.00000000
H        1.40307756       4.05033604      12.29121606        2       1.00000000       0.00000000       0.00000000       0.00000000       0.00000000       0.00000000       0.00000000
H        4.20923268       4.05033604      12.29121606        2       1.00000000       0.00000000       0.00000000       0.00000000       0.00000000       0.00000000       0.00000000
H        0.00000000       0.00000000      14.58243212        1       1.00000000       0.00000000       0.00000000       0.00000000       0.00000000       0.00000000       0.00000000
H        2.80615512       0.00000000      14.58243212        1       1.00000000       0.00000000       0.00000000       0.00000000       0.00000000       0.00000000       0.00000000
H        1.40307756       2.43020162      14.58243212        1       1.00000000       0.00000000       0.00000000       0.00000000       0.00000000       0.00000000       0.00000000
H        4.20923268       2.43020162      14.58243212        1       1.00000000       0.00000000       0.00000000       0.00000000       0.00000000       0.00000000       0.00000000
H        0.00000064       3.24026983      16.81070507        0       1.00000000      -0.00000065       0.00000030       0.00000096      -0.00000074       0.00000053      -0.00000032
H        2.80615611       1.62013350       7.77136775        0       1.00000000       0.00000065       0.00000015       0.00000036      -0.00000175       0.00000061      -0.00000161
H        4.20923284       0.81006789      16.81070480        0       1.00000000       0.00000034       0.00000036       0.00000055       0.00000265      -0.00000111       0.00000048
H        4.20923317       4.05033488       7.77136736        0       1.00000000       0.00000094       0.00000035      -0.00000128       0.00000451      -0.00000026      -0.00000015
H        1.40307739       0.81006815      16.81070519        0       1.00000000      -0.00000060      -0.00000049      -0.00000107      -0.00000161       0.00000070       0.00000002
H        1.40307793       4.05033581       7.77136731        0       1.00000000      -0.00000107       0.00000054      -0.00000038      -0.00000269      -0.00000153      -0.00000028
H        2.80615515       3.24026930      16.81070544        0       1.00000000       0.00000021       0.00000005      -0.00000168       0.00000019       0.00000157      -0.00000040
H        0.00000109       1.62013362       7.77136765        0       1.00000000       0.00000143       0.00000071       0.00000010       0.00000121      -0.00000085      -0.00000129
20
Lattice="5.612310241546866 0.0 0.0 0.0 4.860403243099165 0.0 0.0 0.0 24.582432123328676" Properties=species:S:1:pos:R:3:tags:I:1:masses:R:1:momenta:R:3:forces:R:3 KEmax=25.851991011651638 iter=119999 volume=670.5618179858607 ns_energy=-13.620080613390884 last_walked_iter_clone=119567 energy=-13.620080613395613 stress="0.025725804745187507 -7.989202261394599e-09 7.095881198537749e-09 -7.989202261394599e-09 0.025725801637501607 -3.3807455910284526e-08 7.095881198537749e-09 -3.3807455910284526e-08 0.01328694712204136" pbc="T T F"
H        1.40307756       0.81006721      10.00000000        3       1.00000000       0.00000000       0.00000000       0.00000000       0.00000000       0.00000000       0.00000000
H        4.20923268       0.81006721      10.00000000        3       1.00000000       0.00000000       0.00000000       0.00000000       0.00000000       0.00000000       0.00000000
H        0.00000000       3.24026883      10.00000000        3       1.00000000       0.00000000       0.00000000       0.00000000       0.00000000       0.00000000       0.00000000
H        2.80615512       3.24026883      10.00000000        3       1.00000000       0.00000000       0.00000000       0.00000000       0.00000000       0.00000000       0.00000000
H        0.00000000       1.62013441      12.29121606        2       1.00000000       0.00000000       0.00000000       0.00000000       0.00000000       0.00000000       0.00000000
H        2.80615512       1.62013441      12.29121606        2       1.00000000       0.00000000       0.00000000       0.00000000       0.00000000       0.00000000       0.00000000
H        1.40307756       4.05033604      12.29121606        2       1.00000000       0.00000000       0.00000000       0.00000000       0.00000000       0.00000000       0.00000000
H        4.20923268       4.05033604      12.29121606        2       1.00000000       0.00000000       0.00000000       0.00000000       0.00000000       0.00000000       0.00000000
H        0.00000000       0.00000000      14.58243212        1       1.00000000       0.00000000       0.00000000       0.00000000       0.00000000       0.00000000       0.00000000
H        2.80615512       0.00000000      14.58243212        1       1.00000000       0.00000000       0.00000000       0.00000000       0.00000000       0.00000000       0.00000000
H        1.40307756       2.43020162      14.58243212        1       1.00000000       0.00000000       0.00000000       0.00000000       0.00000000       0.00000000       0.00000000
H        4.20923268       2.43020162      14.58243212        1       1.00000000       0.00000000       0.00000000       0.00000000       0.00000000       0.00000000       0.00000000
H        0.00000062       3.24026802      16.81070503        0       1.00000000       0.00000018      -0.00000007       0.00000011      -0.00000074       0.00000053      -0.00000032
H        2.80615493       1.62013406       7.77136778        0       1.00000000       0.00000024       0.00000096      -0.00000027      -0.00000175       0.00000061      -0.00000161
H        4.20923299       0.81006732      16.81070515        0       1.00000000      -0.00000042       0.00000017      -0.00000023       0.00000265      -0.00000111       0.00000048
H        4.20923258       4.05033552       7.77136745        0       1.00000000       0.00000072       0.00000063      -0.00000107       0.00000451      -0.00000026      -0.00000015
H        1.40307770       0.81006615      16.81070510        0       1.00000000      -0.00000164      -0.00000081      -0.00000077      -0.00000161       0.00000070       0.00000002
H        1.40307730       4.05033601       7.77136742        0       1.00000000      -0.00000053      -0.00000028      -0.00000075      -0.00000269      -0.00000153      -0.00000028
H        2.80615544       3.24026957      16.81070539        0       1.00000000      -0.00000056      -0.00000098      -0.00000086       0.00000019       0.00000157      -0.00000040
H       -0.00000006       1.62013340       7.77136778        0       1.00000000       0.00000069       0.00000093       0.00000003       0.00000121      -0.00000085      -0.00000129
20
Lattice="5.612310241546866 0.0 0.0 0.0 4.860403243099165 0.0 0.0 0.0 24.582432123328676" Properties=species:S:1:pos:R:3:tags:I:1:masses:R:1:momenta:R:3:forces:R:3 KEmax=25.851991011651638 iter=119999 volume=670.5618179858607 ns_energy=-13.620080613391005 last_walked_iter_clone=119658 energy=-13.620080613395613 stress="0.025725804745187507 -7.989202261394599e-09 7.095881198537749e-09 -7.989202261394599e-09 0.025725801637501607 -3.3807455910284526e-08 7.095881198537749e-09 -3.3807455910284526e-08 0.01328694712204136" pbc="T T F"
H        1.40307756       0.81006721      10.00000000        3       1.00000000       0.00000000       0.00000000       0.00000000       0.00000000       0.00000000       0.00000000
H        4.20923268       0.81006721      10.00000000        3       1.00000000       0.00000000       0.00000000       0.00000000       0.00000000       0.00000000       0.00000000
H        0.00000000       3.24026883      10.00000000        3       1.00000000       0.00000000       0.00000000       0.00000000       0.00000000       0.00000000       0.00000000
H        2.80615512       3.24026883      10.00000000        3       1.00000000       0.00000000       0.00000000       0.00000000       0.00000000       0.00000000       0.00000000
H        0.00000000       1.62013441      12.29121606        2       1.00000000       0.00000000       0.00000000       0.00000000       0.00000000       0.00000000       0.00000000
H        2.80615512       1.62013441      12.29121606        2       1.00000000       0.00000000       0.00000000       0.00000000       0.00000000       0.00000000       0.00000000
H        1.40307756       4.05033604      12.29121606        2       1.00000000       0.00000000       0.00000000       0.00000000       0.00000000       0.00000000       0.00000000
H        4.20923268       4.05033604      12.29121606        2       1.00000000       0.00000000       0.00000000       0.00000000       0.00000000       0.00000000       0.00000000
H        0.00000000       0.00000000      14.58243212        1       1.00000000       0.00000000       0.00000000       0.00000000       0.00000000       0.00000000       0.00000000
H        2.80615512       0.00000000      14.58243212        1       1.00000000       0.00000000       0.00000000       0.00000000       0.00000000       0.00000000       0.00000000
H        1.40307756       2.43020162      14.58243212        1       1.00000000       0.00000000       0.00000000       0.00000000       0.00000000       0.00000000       0.00000000
H        4.20923268       2.43020162      14.58243212        1       1.00000000       0.00000000       0.00000000       0.00000000       0.00000000       0.00000000       0.00000000
H        5.61231042       3.24026819      16.81070523        0       1.00000000       0.00000060      -0.00000064       0.00000020      -0.00000074       0.00000053      -0.00000032
H        2.80615455       1.62013486       7.77136622        0       1.00000000       0.00000061       0.00000018      -0.00000151      -0.00000175       0.00000061      -0.00000161
H        4.20923229       0.81006663      16.81070462        0       1.00000000      -0.00000052      -0.00000014      -0.00000118       0.00000265      -0.00000111       0.00000048
H        4.20923197       4.05033665       7.77136751        0       1.00000000      -0.00000043      -0.00000036       0.00000139       0.00000451      -0.00000026      -0.00000015
H        1.40307699       0.81006697      16.81070504        0       1.00000000       0.00000009       0.00000037       0.00000013      -0.00000161       0.00000070       0.00000002
H        1.40307707       4.05033574       7.77136768        0       1.00000000       0.00000052       0.00000025      -0.00000089      -0.00000269      -0.00000153      -0.00000028
H        2.80615494       3.24026896      16.81070605        0       1.00000000       0.00000045       0.00000003      -0.00000140       0.00000019       0.00000157      -0.00000040
H       -0.00000026       1.62013490       7.77136632        0       1.00000000      -0.00000041       0.00000013      -0.00000051       0.00000121      -0.00000085      -0.00000129
20
Lattice="5.612310241546866 0.0 0.0 0.0 4.860403243099165 0.0 0.0 0.0 24.582432123328676" Properties=species:S:1:pos:R:3:tags:I:1:masses:R:1:momenta:R:3:forces:R:3 KEmax=25.851991011651638 iter=119999 volume=670.5618179858607 ns_energy=-13.620080613390911 last_walked_iter_clone=119802 energy=-13.620080613395613 stress="0.025725804745187507 -7.989202261394599e-09 7.095881198537749e-09 -7.989202261394599e-09 0.025725801637501607 -3.3807455910284526e-08 7.095881198537749e-09 -3.3807455910284526e-08 0.01328694712204136" pbc="T T F"
H        1.40307756       0.81006721      10.00000000        3       1.00000000       0.00000000       0.00000000       0.00000000       0.00000000       0.00000000       0.00000000
H        4.20923268       0.81006721      10.00000000        3       1.00000000       0.00000000       0.00000000       0.00000000       0.00000000       0.00000000       0.00000000
H        0.00000000       3.24026883      10.00000000        3       1.00000000       0.00000000       0.00000000       0.00000000       0.00000000       0.00000000       0.00000000
H        2.80615512       3.24026883      10.00000000        3       1.00000000       0.00000000       0.00000000       0.00000000       0.00000000       0.00000000       0.00000000
H        0.00000000       1.62013441      12.29121606        2       1.00000000       0.00000000       0.00000000       0.00000000       0.00000000       0.00000000       0.00000000
H        2.80615512       1.62013441      12.29121606        2       1.00000000       0.00000000       0.00000000       0.00000000       0.00000000       0.00000000       0.00000000
H        1.40307756       4.05033604      12.29121606        2       1.00000000       0.00000000       0.00000000       0.00000000       0.00000000       0.00000000       0.00000000
H        4.20923268       4.05033604      12.29121606        2       1.00000000       0.00000000       0.00000000       0.00000000       0.00000000       0.00000000       0.00000000
H        0.00000000       0.00000000      14.58243212        1       1.00000000       0.00000000       0.00000000       0.00000000       0.00000000       0.00000000       0.00000000
H        2.80615512       0.00000000      14.58243212        1       1.00000000       0.00000000       0.00000000       0.00000000       0.00000000       0.00000000       0.00000000
H        1.40307756       2.43020162      14.58243212        1       1.00000000       0.00000000       0.00000000       0.00000000       0.00000000       0.00000000       0.00000000
H        4.20923268       2.43020162      14.58243212        1       1.00000000       0.00000000       0.00000000       0.00000000       0.00000000       0.00000000       0.00000000
H        0.00000011       3.24026831      16.81070523        0       1.00000000       0.00000077      -0.00000051      -0.00000021      -0.00000074       0.00000053      -0.00000032
H        2.80615456       1.62013477       7.77136623        0       1.00000000       0.00000024       0.00000067      -0.00000099      -0.00000175       0.00000061      -0.00000161
H        4.20923221       0.81006665      16.81070461        0       1.00000000       0.00000032      -0.00000018      -0.00000117       0.00000265      -0.00000111       0.00000048
H        4.20923193       4.05033672       7.77136750        0       1.00000000      -0.00000006      -0.00000069       0.00000109       0.00000451      -0.00000026      -0.00000015
H        1.40307708       0.81006684      16.81070504        0       1.00000000       0.00000011      -0.00000012      -0.00000074      -0.00000161       0.00000070       0.00000002
H        1.40307712       4.05033569       7.77136770        0       1.00000000      -0.00000037       0.00000048      -0.00000070      -0.00000269      -0.00000153      -0.00000028
H        2.80615507       3.24026893      16.81070603        0       1.00000000       0.00000085       0.00000120      -0.00000061       0.00000019       0.00000157      -0.00000040
H       -0.00000024       1.62013491       7.77136632        0       1.00000000      -0.00000102       0.00000073      -0.00000036       0.00000121      -0.00000085      -0.00000129
20
Lattice="5.612310241546866 0.0 0.0 0.0 4.860403243099165 0.0 0.0 0.0 24.582432123328676" Properties=species:S:1:pos:R:3:tags:I:1:masses:R:1:momenta:R:3:forces:R:3 KEmax=25.851991011651638 iter=119999 volume=670.5618179858607 ns_energy=-13.62008061339089 last_walked_iter_clone=119000 energy=-13.620080613395613 stress="0.025725804745187507 -7.989202261394599e-09 7.095881198537749e-09 -7.989202261394599e-09 0.025725801637501607 -3.3807455910284526e-08 7.095881198537749e-09 -3.3807455910284526e-08 0.01328694712204136" pbc="T T F"
H        1.40307756       0.81006721      10.00000000        3       1.00000000       0.00000000       0.00000000       0.00000000       0.00000000       0.00000000       0.00000000
H        4.20923268       0.81006721      10.00000000        3       1.00000000       0.00000000       0.00000000       0.00000000       0.00000000       0.00000000       0.00000000
H        0.00000000       3.24026883      10.00000000        3       1.00000000       0.00000000       0.00000000       0.00000000       0.00000000       0.00000000       0.00000000
H        2.80615512       3.24026883      10.00000000        3       1.00000000       0.00000000       0.00000000       0.00000000       0.00000000       0.00000000       0.00000000
H        0.00000000       1.62013441      12.29121606        2       1.00000000       0.00000000       0.00000000       0.00000000       0.00000000       0.00000000       0.00000000
H        2.80615512       1.62013441      12.29121606        2       1.00000000       0.00000000       0.00000000       0.00000000       0.00000000       0.00000000       0.00000000
H        1.40307756       4.05033604      12.29121606        2       1.00000000       0.00000000       0.00000000       0.00000000       0.00000000       0.00000000       0.00000000
H        4.20923268       4.05033604      12.29121606        2       1.00000000       0.00000000       0.00000000       0.00000000       0.00000000       0.00000000       0.00000000
H        0.00000000       0.00000000      14.58243212        1       1.00000000       0.00000000       0.00000000       0.00000000       0.00000000       0.00000000       0.00000000
H        2.80615512       0.00000000      14.58243212        1       1.00000000       0.00000000       0.00000000       0.00000000       0.00000000       0.00000000       0.00000000
H        1.40307756       2.43020162      14.58243212        1       1.00000000       0.00000000       0.00000000       0.00000000       0.00000000       0.00000000       0.00000000
H        4.20923268       2.43020162      14.58243212        1       1.00000000       0.00000000       0.00000000       0.00000000       0.00000000       0.00000000       0.00000000
H       -0.00000020       3.24026876      16.81070524        0       1.00000000      -0.00000055      -0.00000032      -0.00000180      -0.00000074       0.00000053      -0.00000032
H        2.80615594       1.62013348       7.77136799        0       1.00000000      -0.00000014      -0.00000054      -0.00000055      -0.00000175       0.00000061      -0.00000161
H        4.20923229       0.81006695      16.81070551        0       1.00000000      -0.00000014       0.00000058       0.00000005       0.00000265      -0.00000111       0.00000048
H        4.20923330       4.05033538       7.77136785        0       1.00000000      -0.00000020      -0.00000007      -0.00000048       0.00000451      -0.00000026      -0.00000015
H        1.40307703       0.81006601      16.81070515        0       1.00000000       0.00000045      -0.00000002      -0.00000042      -0.00000161       0.00000070       0.00000002
H        1.40307804       4.05033513       7.77136719        0       1.00000000       0.00000070      -0.00000095      -0.00000074      -0.00000269      -0.00000153      -0.00000028
H        2.80615472       3.24026786      16.81070578        0       1.00000000       0.00000064      -0.00000052      -0.00000098       0.00000019       0.00000157      -0.00000040
H        5.61231066       1.62013330       7.77136786        0       1.00000000       0.00000122       0.00000053       0.00000026       0.00000121      -0.00000085      -0.00000129
20
Lattice="5.612310241546866 0.0 0.0 0.0 4.860403243099165 0.0 0.0 0.0 24.582432123328676" Properties=species:S:1:pos:R:3:tags:I:1:masses:R:1:momenta:R:3:forces:R:3 KEmax=25.851991011651638 iter=119999 volume=670.5618179858607 ns_energy=-13.620080613390833 last_walked_iter_clone=119803 energy=-13.620080613395613 stress="0.025725804745187507 -7.989202261394599e-09 7.095881198537749e-09 -7.989202261394599e-09 0.025725801637501607 -3.3807455910284526e-08 7.095881198537749e-09 -3.3807455910284526e-08 0.01328694712204136" pbc="T T F"
H        1.40307756       0.81006721      10.00000000        3       1.00000000       0.00000000       0.00000000       0.00000000       0.00000000       0.00000000       0.00000000