20
Lattice="5.612310241546866 0.0 0.0 0.0 4.860403243099165 0.0 0.0 0.0 24.582432123328676" Properties=species:S:1:pos:R:3:tags:I:1:masses:R:1:momenta:R:3:forces:R:3 KEmax=25.851991011651638 iter=85030 volume=670.5618179858607 ns_energy=-13.620080611859132 last_walked_iter_clone=85011 energy=-13.620080612595464 stress="0.025725626447694768 -1.6007189305715336e-08 -5.292625158425624e-08 -1.6007189305715336e-08 0.02572585059276901 6.668932968136025e-08 -5.292625158425624e-08 6.668932968136025e-08 0.013286793682700556" pbc="T T F"
H        1.40307756       0.81006721      10.00000000        3       1.00000000       0.00000000       0.00000000       0.00000000       0.00000000       0.00000000       0.00000000
H        4.20923268       0.81006721      10.00000000        3       1.00000000       0.00000000       0.00000000       0.00000000       0.00000000       0.00000000       0.00000000
H        0.00000000       3.24026883      10.00000000        3       1.00000000       0.00000000       0.00000000       0.00000000       0.00000000       0.00000000       0.00000000
H        2.80615512       3.24026883      10.00000000        3       1.00000000       0.00000000       0.00000000       0.00000000       0.00000000       0.00000000       0.00000000
H        0.00000000       1.62013441      12.29121606        2       1.00000000       0.00000000       0.00000000       0.00000000       0.00000000       0.00000000       0.00000000
H        2.80615512       1.62013441      12.29121606        2       1.00000000       0.00000000       0.00000000       0.00000000       0.00000000       0.00000000       0.00000000
H        1.40307756       4.05033604      12.29121606        2       1.00000000       0.00000000       0.00000000       0.00000000       0.00000000       0.00000000       0.00000000
H        4.20923268       4.05033604      12.29121606        2       1.00000000       0.00000000       0.00000000       0.00000000       0.00000000       0.00000000       0.00000000
H        0.00000000       0.00000000      14.58243212        1       1.00000000       0.00000000       0.00000000       0.00000000       0.00000000       0.00000000       0.00000000
H        2.80615512       0.00000000      14.58243212        1       1.00000000       0.00000000       0.00000000       0.00000000       0.00000000       0.00000000       0.00000000
H        1.40307756       2.43020162      14.58243212        1       1.00000000       0.00000000       0.00000000       0.00000000       0.00000000       0.00000000       0.00000000
H        4.20923268       2.43020162      14.58243212        1       1.00000000       0.00000000       0.00000000       0.00000000       0.00000000       0.00000000       0.00000000
H       -0.00000071       3.24026265      16.81069511        0       1.00000000      -0.00000779      -0.00000227       0.00000642       0.00002033      -0.00001405       0.00001372
H        2.80616066       1.62013259       7.77135667        0       1.00000000      -0.00001308      -0.00000264      -0.00001095      -0.00003606      -0.00001766       0.00000189
H        4.20922711       0.81005990      16.81070725        0       1.00000000       0.00000123      -0.00000045      -0.00000239       0.00000724       0.00002411       0.00001222
H        4.20923449       4.05032562       7.77137018        0       1.00000000      -0.00000688      -0.00000323       0.00000409      -0.00000580       0.00002478      -0.00000563
H        1.40308208       0.81006646      16.81070243        0       1.00000000      -0.00002193       0.00000229      -0.00000210      -0.00000598       0.00001725      -0.00001594
H        1.40308136       4.05032989       7.77137229        0       1.00000000       0.00000419      -0.00001676      -0.00000587       0.00000523       0.00002339      -0.00000014
H        2.80615560       3.24026368      16.81070873        0       1.00000000      -0.00000255      -0.00000755       0.00000143      -0.00001688      -0.00001855      -0.00000395
H        0.00000120       1.62012499       7.77136273        0       1.00000000      -0.00001422      -0.00000038      -0.00000298       0.00003549      -0.00001438      -0.00000865
20
Lattice="5.612310241546866 0.0 0.0 0.0 4.860403243099165 0.0 0.0 0.0 24.582432123328676" Properties=species:S:1:pos:R:3:tags:I:1:masses:R:1:momenta:R:3:forces:R:3 KEmax=25.851991011651638 iter=85030 volume=670.5618179858607 ns_energy=-13.620080611862793 last_walked_iter_clone=84884 energy=-13.620080612595464 stress="0.025725626447694768 -1.6007189305715336e-08 -5.292625158425624e-08 -1.6007189305715336e-08 0.02572585059276901 6.668932968136025e-08 -5.292625158425624e-08 6.668932968136025e-08 0.013286793682700556" pbc="T T F"
H        1.40307756       0.81006721      10.00000000        3       1.00000000       0.00000000       0.00000000       0.00000000       0.00000000       0.00000000       0.00000000
H        4.20923268       0.81006721      10.00000000        3       1.00000000       0.00000000       0.00000000       0.00000000       0.00000000       0.00000000       0.00000000
H        0.00000000       3.24026883      10.00000000        3       1.00000000       0.00000000       0.00000000       0.00000000       0.00000000       0.00000000       0.00000000
H        2.80615512       3.24026883      10.00000000        3       1.00000000       0.00000000       0.00000000       0.00000000       0.00000000       0.00000000       0.00000000
H        0.00000000       1.62013441      12.29121606        2       1.00000000       0.00000000       0.00000000       0.00000000       0.00000000       0.00000000       0.00000000
H        2.80615512       1.62013441      12.29121606        2       1.00000000       0.00000000       0.00000000       0.00000000       0.00000000       0.00000000       0.00000000
H        1.40307756       4.05033604      12.29121606        2       1.00000000       0.00000000       0.00000000       0.00000000       0.00000000       0.00000000       0.00000000
H        4.20923268       4.05033604      12.29121606        2       1.00000000       0.00000000       0.00000000       0.00000000       0.00000000       0.00000000       0.00000000
H        0.00000000       0.00000000      14.58243212        1       1.00000000       0.00000000       0.00000000       0.00000000       0.00000000       0.00000000       0.00000000
H        2.80615512       0.00000000      14.58243212        1       1.00000000       0.00000000       0.00000000       0.00000000       0.00000000       0.00000000       0.00000000
H        1.40307756       2.43020162      14.58243212        1       1.00000000       0.00000000       0.00000000       0.00000000       0.00000000       0.00000000       0.00000000
H        4.20923268       2.43020162      14.58243212        1       1.00000000       0.00000000       0.00000000       0.00000000       0.00000000       0.00000000       0.00000000
H        5.61231047       3.24028319      16.81070772        0       1.00000000       0.00001086       0.00001559       0.00000221       0.00002033      -0.00001405       0.00001372
H        2.80615841       1.62012702       7.77136429        0       1.00000000      -0.00000263       0.00000294      -0.00000261      -0.00003606      -0.00001766       0.00000189
H        4.20923182       0.81007267      16.81069671        0       1.00000000       0.00000356      -0.00000906       0.00000344       0.00000724       0.00002411       0.00001222
H        4.20924163       4.05033472       7.77136345        0       1.00000000       0.00000398      -0.00000537      -0.00000226      -0.00000580       0.00002478      -0.00000563
H        1.40306846       0.81007388      16.81069938        0       1.00000000      -0.00001437       0.00000853       0.00000109      -0.00000598       0.00001725      -0.00001594
H        1.40308609       4.05033229       7.77137742        0       1.00000000      -0.00000599      -0.00001107      -0.00000613       0.00000523       0.00002339      -0.00000014
H        2.80615983       3.24027165      16.81069842        0       1.00000000       0.00000224      -0.00000035       0.00000749      -0.00001688      -0.00001855      -0.00000395
H        0.00000413       1.62013825       7.77137286        0       1.00000000       0.00000798       0.00000574       0.00000057       0.00003549      -0.00001438      -0.00000865
20
Lattice="5.612310241546866 0.0 0.0 0.0 4.860403243099165 0.0 0.0 0.0 24.582432123328676" Properties=species:S:1:pos:R:3:tags:I:1:masses:R:1:momenta:R:3:forces:R:3 KEmax=25.851991011651638 iter=85030 volume=670.5618179858607 ns_energy=-13.620080611838281 last_walked_iter_clone=85016 energy=-13.620080612595464 stress="0.025725626447694768 -1.6007189305715336e-08 -5.292625158425624e-08 -1.6007189305715336e-08 0.02572585059276901 6.668932968136025e-08 -5.292625158425624e-08 6.668932968136025e-08 0.013286793682700556" pbc="T T F"
H        1.40307756       0.81006721      10.00000000        3       1.00000000       0.00000000       0.00000000       0.00000000       0.00000000       0.00000000       0.00000000
H        4.20923268       0.81006721      10.00000000        3       1.00000000       0.00000000       0.00000000       0.00000000       0.00000000       0.00000000       0.00000000
H        0.00000000       3.24026883      10.00000000        3       1.00000000       0.00000000       0.00000000       0.00000000       0.00000000       0.00000000       0.00000000
H        2.80615512       3.24026883      10.00000000        3       1.00000000       0.00000000       0.00000000       0.00000000       0.00000000       0.00000000       0.00000000
H        0.00000000       1.62013441      12.29121606        2       1.00000000       0.00000000       0.00000000       0.00000000       0.00000000       0.00000000       0.00000000
H        2.80615512       1.62013441      12.29121606        2       1.00000000       0.00000000       0.00000000       0.00000000       0.00000000       0.00000000       0.00000000
H        1.40307756       4.05033604      12.29121606        2       1.00000000       0.00000000       0.00000000       0.00000000       0.00000000       0.00000000       0.00000000
H        4.20923268       4.05033604      12.29121606        2       1.00000000       0.00000000       0.00000000       0.00000000       0.00000000       0.00000000       0.00000000
H        0.00000000       0.00000000      14.58243212        1       1.00000000       0.00000000       0.00000000       0.00000000       0.00000000       0.00000000       0.00000000
H        2.80615512       0.00000000      14.58243212        1       1.00000000       0.00000000       0.00000000       0.00000000       0.00000000       0.00000000       0.00000000
H        1.40307756       2.43020162      14.58243212        1       1.00000000       0.00000000       0.00000000       0.00000000       0.00000000       0.00000000       0.00000000
H        4.20923268       2.43020162      14.58243212        1       1.00000000       0.00000000       0.00000000       0.00000000       0.00000000       0.00000000       0.00000000
H        5.61230387       3.24027316      16.81070511        0       1.00000000       0.00000205      -0.00000215      -0.00000161       0.00002033      -0.00001405       0.00001372
H        2.80614637       1.62012396       7.77137205        0       1.00000000       0.00000262      -0.00000966      -0.00000235      -0.00003606      -0.00001766       0.00000189
H        4.20922761       0.81007648      16.81070885        0       1.00000000      -0.00000588      -0.00000051       0.00000396       0.00000724       0.00002411       0.00001222
H        4.20921168       4.05032815       7.77137009        0       1.00000000      -0.00001271      -0.00001563       0.00000012      -0.00000580       0.00002478      -0.00000563
H        1.40307495       0.81007684      16.81070389        0       1.00000000       0.00000001      -0.00001838      -0.00000578      -0.00000598       0.00001725      -0.00001594
H        1.40305885       4.05033829       7.77136702        0       1.00000000      -0.00000102       0.00000635      -0.00000954       0.00000523       0.00002339      -0.00000014
H        2.80615268       3.24026793      16.81070416        0       1.00000000       0.00000897      -0.00000276       0.00000224      -0.00001688      -0.00001855      -0.00000395
H        5.61229817       1.62013118       7.77136567        0       1.00000000       0.00000383       0.00000745       0.00000003       0.00003549      -0.00001438      -0.00000865
20
Lattice="5.612310241546866 0.0 0.0 0.0 4.860403243099165 0.0 0.0 0.0 24.582432123328676" Properties=species:S:1:pos:R:3:tags:I:1:masses:R:1:momenta:R:3:forces:R:3 KEmax=25.851991011651638 iter=85030 volume=670.5618179858607 ns_energy=-13.620080611852568 last_walked_iter_clone=85026 energy=-13.620080612595464 stress="0.025725626447694768 -1.6007189305715336e-08 -5.292625158425624e-08 -1.6007189305715336e-08 0.02572585059276901 6.668932968136025e-08 -5.292625158425624e-08 6.668932968136025e-08 0.013286793682700556" pbc="T T F"
H        1.40307756       0.81006721      10.00000000        3       1.00000000       0.00000000       0.00000000       0.00000000       0.00000000       0.00000000       0.00000000
H        4.20923268       0.81006721      10.00000000        3       1.00000000       0.00000000       0.00000000       0.00000000       0.00000000       0.00000000       0.00000000
H        0.00000000       3.24026883      10.00000000        3       1.00000000       0.00000000       0.00000000       0.00000000       0.00000000       0.00000000       0.00000000
H        2.80615512       3.24026883      10.00000000        3       1.00000000       0.00000000       0.00000000       0.00000000       0.00000000       0.00000000       0.00000000
H        0.00000000       1.62013441      12.29121606        2       1.00000000       0.00000000       0.00000000       0.00000000       0.00000000       0.00000000       0.00000000
H        2.80615512       1.62013441      12.29121606        2       1.00000000       0.00000000       0.00000000       0.00000000       0.00000000       0.00000000       0.00000000
H        1.40307756       4.05033604      12.29121606        2       1.00000000       0.00000000       0.00000000       0.00000000       0.00000000       0.00000000       0.00000000
H        4.20923268       4.05033604      12.29121606        2       1.00000000       0.00000000       0.00000000       0.00000000       0.00000000       0.00000000       0.00000000
H        0.00000000       0.00000000      14.58243212        1       1.00000000       0.00000000       0.00000000       0.00000000       0.00000000       0.00000000       0.00000000
H        2.80615512       0.00000000      14.58243212        1       1.00000000       0.00000000       0.00000000       0.00000000       0.00000000       0.00000000       0.00000000
H        1.40307756       2.43020162      14.58243212        1       1.00000000       0.00000000       0.00000000       0.00000000       0.00000000       0.00000000       0.00000000
H        4.20923268       2.43020162      14.58243212        1       1.00000000       0.00000000       0.00000000       0.00000000       0.00000000       0.00000000       0.00000000
H        0.00000277       3.24026628      16.81069848        0       1.00000000      -0.00000280       0.00000337       0.00000428       0.00002033      -0.00001405       0.00001372
H        2.80615622       1.62013817       7.77136895        0       1.00000000      -0.00000473      -0.00000916      -0.00000746      -0.00003606      -0.00001766       0.00000189
H        4.20923058       0.81006889      16.81071260        0       1.00000000      -0.00001266       0.00001508       0.00001026       0.00000724       0.00002411       0.00001222
H        4.20923504       4.05034471       7.77136563        0       1.00000000       0.00002148       0.00000026       0.00000347      -0.00000580       0.00002478      -0.00000563
H        1.40307550       0.81007740      16.81070380        0       1.00000000      -0.00001060       0.00000422      -0.00000099      -0.00000598       0.00001725      -0.00001594
H        1.40307688       4.05034485       7.77136987        0       1.00000000      -0.00000455       0.00000912       0.00000501       0.00000523       0.00002339      -0.00000014
H        2.80615310       3.24027266      16.81069463        0       1.00000000      -0.00000399      -0.00000265      -0.00000760      -0.00001688      -0.00001855      -0.00000395
H        5.61231232       1.62013558       7.77136781        0       1.00000000       0.00000236       0.00001006      -0.00000989       0.00003549      -0.00001438      -0.00000865
20
Lattice="5.612310241546866 0.0 0.0 0.0 4.860403243099165 0.0 0.0 0.0 24.582432123328676" Properties=species:S:1:pos:R:3:tags:I:1:masses:R:1:momenta:R:3:forces:R:3 KEmax=25.851991011651638 iter=85030 volume=670.5618179858607 ns_energy=-13.620080611952329 last_walked_iter_clone=84991 energy=-13.620080612595464 stress="0.025725626447694768 -1.6007189305715336e-08 -5.292625158425624e-08 -1.6007189305715336e-08 0.02572585059276901 6.668932968136025e-08 -5.292625158425624e-08 6.668932968136025e-08 0.013286793682700556" pbc="T T F"
H        1.40307756       0.81006721      10.00000000        3       1.00000000       0.00000000       0.00000000       0.00000000       0.00000000       0.00000000       0.00000000
H        4.20923268       0.81006721      10.00000000        3       1.00000000       0.00000000       0.00000000       0.00000000       0.00000000       0.00000000       0.00000000
H        0.00000000       3.24026883      10.00000000        3       1.00000000       0.00000000       0.00000000       0.00000000       0.00000000       0.00000000       0.00000000
H        2.80615512       3.24026883      10.00000000        3       1.00000000       0.00000000       0.00000000       0.00000000       0.00000000       0.00000000       0.00000000
H        0.00000000       1.62013441      12.29121606        2       1.00000000       0.00000000       0.00000000       0.00000000       0.00000000       0.00000000       0.00000000
H        2.80615512       1.62013441      12.29121606        2       1.00000000       0.00000000       0.00000000       0.00000000       0.00000000       0.00000000       0.00000000
H        1.40307756       4.05033604      12.29121606        2       1.00000000       0.00000000       0.00000000       0.00000000       0.00000000       0.00000000       0.00000000
H        4.20923268       4.05033604      12.29121606        2       1.00000000       0.00000000       0.00000000       0.00000000       0.00000000       0.00000000       0.00000000
H        0.00000000       0.00000000      14.58243212        1       1.00000000       0.00000000       0.00000000       0.00000000       0.00000000       0.00000000       0.00000000
H        2.80615512       0.00000000      14.58243212        1       1.00000000       0.00000000       0.00000000       0.00000000       0.00000000       0.00000000       0.00000000
H        1.40307756       2.43020162      14.58243212        1       1.00000000       0.00000000       0.00000000       0.00000000       0.00000000       0.00000000       0.00000000
H        4.20923268       2.43020162      14.58243212        1       1.00000000       0.00000000       0.00000000       0.00000000       0.00000000       0.00000000       0.00000000
H        5.61231847       3.24027450      16.81070020        0       1.00000000      -0.00000350      -0.00000399       0.00000079       0.00002033      -0.00001405       0.00001372
H        2.80614801       1.62013406       7.77136380        0       1.00000000      -0.00000146      -0.00000297      -0.00001024      -0.00003606      -0.00001766       0.00000189
H        4.20923503       0.81006055      16.81070241        0       1.00000000       0.00001082       0.00001709      -0.00000976       0.00000724       0.00002411       0.00001222
H        4.20921968       4.05033176       7.77136032        0       1.00000000      -0.00000068      -0.00000077      -0.00000470      -0.00000580       0.00002478      -0.00000563
H        1.40307933       0.81006983      16.81070889        0       1.00000000      -0.00001027      -0.00000331      -0.00000826      -0.00000598       0.00001725      -0.00001594
H        1.40306352       4.05033818       7.77136344        0       1.00000000       0.00000026       0.00000335      -0.00000362       0.00000523       0.00002339      -0.00000014
H        2.80615775       3.24026896      16.81070855        0       1.00000000       0.00000367      -0.00000822      -0.00001162      -0.00001688      -0.00001855      -0.00000395
H       -0.00000767       1.62013355       7.77136875        0       1.00000000      -0.00001960      -0.00001318       0.00000453       0.00003549      -0.00001438      -0.00000865
20
Lattice="5.612310241546866 0.0 0.0 0.0 4.860403243099165 0.0 0.0 0.0 24.582432123328676" Properties=species:S:1:pos:R:3:tags:I:1:masses:R:1:momenta:R:3:forces:R:3 KEmax=25.851991011651638 iter=85030 volume=670.5618179858607 ns_energy=-13.620080611854087 last_walked_iter_clone=84965 energy=-13.620080612595464 stress="0.025725626447694768 -1.6007189305715336e-08 -5.292625158425624e-08 -1.6007189305715336e-08 0.02572585059276901 6.668932968136025e-08 -5.292625158425624e-08 6.668932968136025e-08 0.013286793682700556" pbc="T T F"
H        1.40307756       0.81006721      10.00000000        3       1.00000000       0.00000000       0.00000000       0.00000000       0.00000000       0.00000000       0.00000000
H        4.20923268       0.81006721      10.00000000        3       1.00000000       0.00000000       0.00000000       0.00000000       0.00000000       0.00000000       0.00000000
H        0.00000000       3.24026883      10.00000000        3       1.00000000       0.00000000       0.00000000       0.00000000       0.00000000       0.00000000       0.00000000
H        2.80615512       3.24026883      10.00000000        3       1.00000000       0.00000000       0.00000000       0.00000000       0.00000000       0.00000000       0.00000000
H        0.00000000       1.62013441      12.29121606        2       1.00000000       0.00000000       0.00000000       0.00000000       0.00000000       0.00000000       0.00000000
H        2.80615512       1.62013441      12.29121606        2       1.00000000       0.00000000       0.00000000       0.00000000       0.00000000       0.00000000       0.00000000
H        1.40307756       4.05033604      12.29121606        2       1.00000000       0.00000000       0.00000000       0.00000000       0.00000000       0.00000000       0.00000000
H        4.20923268       4.05033604      12.29121606        2       1.00000000       0.00000000       0.00000000       0.00000000       0.00000000       0.00000000       0.00000000
H        0.00000000       0.00000000      14.58243212        1       1.00000000       0.00000000       0.00000000       0.00000000       0.00000000       0.00000000       0.00000000
H        2.80615512       0.00000000      14.58243212        1       1.00000000       0.00000000       0.00000000       0.00000000       0.00000000       0.00000000       0.00000000
H        1.40307756       2.43020162      14.58243212        1       1.00000000       0.00000000       0.00000000       0.00000000       0.00000000       0.00000000       0.00000000
H        4.20923268       2.43020162      14.58243212        1       1.00000000       0.00000000       0.00000000       0.00000000       0.00000000       0.00000000       0.00000000
H        0.00000611       3.24026554      16.81070790        0       1.00000000      -0.00002127      -0.00000599       0.00000612       0.00002033      -0.00001405       0.00001372
H        2.80615332       1.62013604       7.77136005        0       1.00000000      -0.00000024      -0.00000419      -0.00001488      -0.00003606      -0.00001766       0.00000189
H        4.20923984       0.81006718      16.81071215        0       1.00000000       0.00002034       0.00000326       0.00000387       0.00000724       0.00002411       0.00001222
H        4.20923212       4.05033789       7.77136610        0       1.00000000      -0.00000094       0.00000676       0.00000217      -0.00000580       0.00002478      -0.00000563
H        1.40308215       0.81007515      16.81069560        0       1.00000000      -0.00000560      -0.00000351       0.00001743      -0.00000598       0.00001725      -0.00001594
H        1.40307708       4.05033924       7.77136628        0       1.00000000      -0.00000336       0.00000706      -0.00001180       0.00000523       0.00002339      -0.00000014
H        2.80616151       3.24026899      16.81070491        0       1.00000000      -0.00000499      -0.00000214      -0.00000500      -0.00001688      -0.00001855      -0.00000395
H        5.61231467       1.62013376       7.77136781        0       1.00000000       0.00001283      -0.00000123       0.00000016       0.00003549      -0.00001438      -0.00000865
20
Lattice="5.612310241546866 0.0 0.0 0.0 4.860403243099165 0.0 0.0 0.0 24.582432123328676" Properties=species:S:1:pos:R:3:tags:I:1:masses:R:1:momenta:R:3:forces:R:3 KEmax=25.851991011651638 iter=85030 volume=670.5618179858607 ns_energy=-13.620080611845655 last_walked_iter_clone=84907 energy=-13.620080612595464 stress="0.025725626447694768 -1.6007189305715336e-08 -5.292625158425624e-08 -1.6007189305715336e-08 0.02572585059276901 6.668932968136025e-08 -5.292625158425624e-08 6.668932968136025e-08 0.013286793682700556" pbc="T T F"
H        1.40307756       0.81006721      10.00000000        3       1.00000000       0.00000000       0.00000000       0.00000000       0.00000000       0.00000000       0.00000000
H        4.20923268       0.81006721      10.00000000        3       1.00000000       0.00000000       0.00000000       0.00000000       0.00000000       0.00000000       0.00000000
H        0.00000000       3.24026883      10.00000000        3       1.00000000       0.00000000       0.00000000       0.00000000       0.00000000       0.00000000       0.00000000
H        2.80615512       3.24026883      10.00000000        3       1.00000000       0.00000000       0.00000000       0.00000000       0.00000000       0.00000000       0.00000000
H        0.00000000       1.62013441      12.29121606        2       1.00000000       0.00000000       0.00000000       0.00000000       0.00000000       0.00000000       0.00000000
H        2.80615512       1.62013441      12.29121606        2       1.00000000       0.00000000       0.00000000       0.00000000       0.00000000       0.00000000       0.00000000
H        1.40307756       4.05033604      12.29121606        2       1.00000000       0.00000000       0.00000000       0.00000000       0.00000000       0.00000000       0.00000000
H        4.20923268       4.05033604      12.29121606        2       1.00000000       0.00000000       0.00000000       0.00000000       0.00000000       0.00000000       0.00000000
H        0.00000000       0.00000000      14.58243212        1       1.00000000       0.00000000       0.00000000       0.00000000       0.00000000       0.00000000       0.00000000
H        2.80615512       0.00000000      14.58243212        1       1.00000000       0.00000000       0.00000000       0.00000000       0.00000000       0.00000000       0.00000000
H        1.40307756       2.43020162      14.58243212        1       1.00000000       0.00000000       0.00000000       0.00000000       0.00000000       0.00000000       0.00000000
H        4.20923268       2.43020162      14.58243212        1       1.00000000       0.00000000       0.00000000       0.00000000       0.00000000       0.00000000       0.00000000
H        5.61231305       3.24026596      16.81071050        0       1.00000000       0.00000220      -0.00000677       0.00001333       0.00002033      -0.00001405       0.00001372
H        2.80614036       1.62013476       7.77137539        0       1.00000000      -0.00001364      -0.00000451       0.00000775      -0.00003606      -0.00001766       0.00000189
H        4.20923544       0.81006848      16.81070849        0       1.00000000      -0.00000379       0.00000184       0.00001323       0.00000724       0.00002411       0.00001222
H        4.20922131       4.05034089       7.77136788        0       1.00000000      -0.00001218       0.00000374       0.00000436      -0.00000580       0.00002478      -0.00000563
H        1.40307969       0.81006971      16.81070772        0       1.00000000       0.00000593       0.00000819       0.00001236      -0.00000598       0.00001725      -0.00001594
H        1.40307178       4.05033540       7.77136853        0       1.00000000      -0.00001518       0.00000288       0.00000414       0.00000523       0.00002339      -0.00000014
H        2.80616263       3.24027286      16.81070776        0       1.00000000       0.00001448      -0.00001751       0.00000473      -0.00001688      -0.00001855      -0.00000395
H       -0.00000903       1.62013557       7.77136293        0       1.00000000      -0.00000803      -0.00000768      -0.00000214       0.00003549      -0.00001438      -0.00000865
20
Lattice="5.612310241546866 0.0 0.0 0.0 4.860403243099165 0.0 0.0 0.0 24.582432123328676" Properties=species:S:1:pos:R:3:tags:I:1:masses:R:1:momenta:R:3:forces:R:3 KEmax=25.851991011651638 iter=85030 volume=670.5618179858607 ns_energy=-13.620080611927646 last_walked_iter_clone=84954 energy=-13.620080612595464 stress="0.025725626447694768 -1.6007189305715336e-08 -5.292625158425624e-08 -1.6007189305715336e-08 0.02572585059276901 6.668932968136025e-08 -5.292625158425624e-08 6.668932968136025e-08 0.013286793682700556" pbc="T T F"
H        1.40307756       0.81006721      10.00000000        3       1.00000000       0.00000000       0.00000000       0.00000000       0.00000000       0.00000000       0.00000000