21
Lattice="5.612310241546866 0.0 0.0 0.0 4.860403243099165 0.0 0.0 0.0 24.582432123328676" Properties=species:S:1:pos:R:3:tags:I:1:masses:R:1:momenta:R:3:forces:R:3 KEmax=27.14459056223422 iter=239999 volume=670.5618179858607 ns_energy=-14.088923011656199 last_walked_iter_clone=239891 energy=-14.088923011665065 stress="0.021480002103189667 2.74424219519891e-09 1.3447581613632447e-08 2.74424219519891e-09 0.021539551621289954 -1.4056309405601794e-08 1.3447581613632447e-08 -1.4056309405601794e-08 0.010720181519037118" pbc="T T F"
H        1.40307756       0.81006721      10.00000000        3       1.00000000       0.00000000       0.00000000       0.00000000       0.00000000       0.00000000       0.00000000
H        4.20923268       0.81006721      10.00000000        3       1.00000000       0.00000000       0.00000000       0.00000000       0.00000000       0.00000000       0.00000000
H        0.00000000       3.24026883      10.00000000        3       1.00000000       0.00000000       0.00000000       0.00000000       0.00000000       0.00000000       0.00000000
H        2.80615512       3.24026883      10.00000000        3       1.00000000       0.00000000       0.00000000       0.00000000       0.00000000       0.00000000       0.00000000
H        0.00000000       1.62013441      12.29121606        2       1.00000000       0.00000000       0.00000000       0.00000000       0.00000000       0.00000000       0.00000000
H        2.80615512       1.62013441      12.29121606        2       1.00000000       0.00000000       0.00000000       0.00000000       0.00000000       0.00000000       0.00000000
H        1.40307756       4.05033604      12.29121606        2       1.00000000       0.00000000       0.00000000       0.00000000       0.00000000       0.00000000       0.00000000
H        4.20923268       4.05033604      12.29121606        2       1.00000000       0.00000000       0.00000000       0.00000000       0.00000000       0.00000000       0.00000000
H        0.00000000       0.00000000      14.58243212        1       1.00000000       0.00000000       0.00000000       0.00000000       0.00000000       0.00000000       0.00000000
H        2.80615512       0.00000000      14.58243212        1       1.00000000       0.00000000       0.00000000       0.00000000       0.00000000       0.00000000       0.00000000
H        1.40307756       2.43020162      14.58243212        1       1.00000000       0.00000000       0.00000000       0.00000000       0.00000000       0.00000000       0.00000000
H        4.20923268       2.43020162      14.58243212        1       1.00000000       0.00000000       0.00000000       0.00000000       0.00000000       0.00000000       0.00000000
H        0.00732400       3.23594489      16.79604189        0       1.00000000      -0.00000030      -0.00000039      -0.00000167      -0.00000149      -0.00000012      -0.00000049
H        2.79883248       3.23594490      16.79604181        0       1.00000000      -0.00000051      -0.00000036       0.00000060       0.00000020      -0.00000383       0.00000114
H        4.20923320       4.05033682       7.77136742        0       1.00000000       0.00000043       0.00000174       0.00000082       0.00000204      -0.00000187       0.00000055
H        4.20923353       4.05148763      19.01491321        0       1.00000000      -0.00000089      -0.00000097      -0.00000012      -0.00000015       0.00000063      -0.00000074
H        2.80615586       1.62013610       7.77136702        0       1.00000000      -0.00000064      -0.00000077      -0.00000027      -0.00000037       0.00000049       0.00000092
H        1.40307812       0.80073543      16.83184506        0       1.00000000      -0.00000023      -0.00000051      -0.00000115       0.00000005       0.00000349       0.00000255
H        1.40307869       4.05033670       7.77136715        0       1.00000000       0.00000001      -0.00000045       0.00000093      -0.00000116       0.00000429       0.00000068
H        4.20923402       0.82634918      16.80075662        0       1.00000000       0.00000015       0.00000125       0.00000155       0.00000037      -0.00000014       0.00000007
H        0.00000078       1.62013498       7.77136714        0       1.00000000      -0.00000221      -0.00000074      -0.00000100       0.00000016      -0.00000235      -0.00000166
21
Lattice="5.612310241546866 0.0 0.0 0.0 4.860403243099165 0.0 0.0 0.0 24.582432123328676" Properties=species:S:1:pos:R:3:tags:I:1:masses:R:1:momenta:R:3:forces:R:3 KEmax=27.14459056223422 iter=239999 volume=670.5618179858607 ns_energy=-14.088923011655952 last_walked_iter_clone=239793 energy=-14.088923011665065 stress="0.021480002103189667 2.74424219519891e-09 1.3447581613632447e-08 2.74424219519891e-09 0.021539551621289954 -1.4056309405601794e-08 1.3447581613632447e-08 -1.4056309405601794e-08 0.010720181519037118" pbc="T T F"
H        1.40307756       0.81006721      10.00000000        3       1.00000000       0.00000000       0.00000000       0.00000000       0.00000000       0.00000000       0.00000000
H        4.20923268       0.81006721      10.00000000        3       1.00000000       0.00000000       0.00000000       0.00000000       0.00000000       0.00000000       0.00000000
H        0.00000000       3.24026883      10.00000000        3       1.00000000       0.00000000       0.00000000       0.00000000       0.00000000       0.00000000       0.00000000
H        2.80615512       3.24026883      10.00000000        3       1.00000000       0.00000000       0.00000000       0.00000000       0.00000000       0.00000000       0.00000000
H        0.00000000       1.62013441      12.29121606        2       1.00000000       0.00000000       0.00000000       0.00000000       0.00000000       0.00000000       0.00000000
H        2.80615512       1.62013441      12.29121606        2       1.00000000       0.00000000       0.00000000       0.00000000       0.00000000       0.00000000       0.00000000
H        1.40307756       4.05033604      12.29121606        2       1.00000000       0.00000000       0.00000000       0.00000000       0.00000000       0.00000000       0.00000000
H        4.20923268       4.05033604      12.29121606        2       1.00000000       0.00000000       0.00000000       0.00000000       0.00000000       0.00000000       0.00000000
H        0.00000000       0.00000000      14.58243212        1       1.00000000       0.00000000       0.00000000       0.00000000       0.00000000       0.00000000       0.00000000
H        2.80615512       0.00000000      14.58243212        1       1.00000000       0.00000000       0.00000000       0.00000000       0.00000000       0.00000000       0.00000000
H        1.40307756       2.43020162      14.58243212        1       1.00000000       0.00000000       0.00000000       0.00000000       0.00000000       0.00000000       0.00000000
H        4.20923268       2.43020162      14.58243212        1       1.00000000       0.00000000       0.00000000       0.00000000       0.00000000       0.00000000       0.00000000
H        0.00732331       3.23594435      16.79604179        0       1.00000000       0.00000148       0.00000046      -0.00000022      -0.00000149      -0.00000012      -0.00000049
H        2.79883277       3.23594330      16.79604102        0       1.00000000      -0.00000039      -0.00000039       0.00000104       0.00000020      -0.00000383       0.00000114
H        4.20923406       4.05033641       7.77136749        0       1.00000000       0.00000158      -0.00000034       0.00000135       0.00000204      -0.00000187       0.00000055
H        4.20923247       4.05148586      19.01491309        0       1.00000000       0.00000006      -0.00000089       0.00000025      -0.00000015       0.00000063      -0.00000074
H        2.80615680       1.62013491       7.77136745        0       1.00000000       0.00000048      -0.00000133      -0.00000004      -0.00000037       0.00000049       0.00000092
H        1.40307777       0.80073512      16.83184410        0       1.00000000      -0.00000032       0.00000070       0.00000081       0.00000005       0.00000349       0.00000255
H        1.40307811       4.05033663       7.77136646        0       1.00000000      -0.00000037      -0.00000062       0.00000098      -0.00000116       0.00000429       0.00000068
H        4.20923313       0.82634743      16.80075638        0       1.00000000      -0.00000073       0.00000187      -0.00000012       0.00000037      -0.00000014       0.00000007
H        5.61231191       1.62013504       7.77136730        0       1.00000000      -0.00000063       0.00000173      -0.00000133       0.00000016      -0.00000235      -0.00000166
21
Lattice="5.612310241546866 0.0 0.0 0.0 4.860403243099165 0.0 0.0 0.0 24.582432123328676" Properties=species:S:1:pos:R:3:tags:I:1:masses:R:1:momenta:R:3:forces:R:3 KEmax=27.14459056223422 iter=239999 volume=670.5618179858607 ns_energy=-14.088923011655911 last_walked_iter_clone=239972 energy=-14.088923011665065 stress="0.021480002103189667 2.74424219519891e-09 1.3447581613632447e-08 2.74424219519891e-09 0.021539551621289954 -1.4056309405601794e-08 1.3447581613632447e-08 -1.4056309405601794e-08 0.010720181519037118" pbc="T T F"
H        1.40307756       0.81006721      10.00000000        3       1.00000000       0.00000000       0.00000000       0.00000000       0.00000000       0.00000000       0.00000000
H        4.20923268       0.81006721      10.00000000        3       1.00000000       0.00000000       0.00000000       0.00000000       0.00000000       0.00000000       0.00000000
H        0.00000000       3.24026883      10.00000000        3       1.00000000       0.00000000       0.00000000       0.00000000       0.00000000       0.00000000       0.00000000
H        2.80615512       3.24026883      10.00000000        3       1.00000000       0.00000000       0.00000000       0.00000000       0.00000000       0.00000000       0.00000000
H        0.00000000       1.62013441      12.29121606        2       1.00000000       0.00000000       0.00000000       0.00000000       0.00000000       0.00000000       0.00000000
H        2.80615512       1.62013441      12.29121606        2       1.00000000       0.00000000       0.00000000       0.00000000       0.00000000       0.00000000       0.00000000
H        1.40307756       4.05033604      12.29121606        2       1.00000000       0.00000000       0.00000000       0.00000000       0.00000000       0.00000000       0.00000000
H        4.20923268       4.05033604      12.29121606        2       1.00000000       0.00000000       0.00000000       0.00000000       0.00000000       0.00000000       0.00000000
H        0.00000000       0.00000000      14.58243212        1       1.00000000       0.00000000       0.00000000       0.00000000       0.00000000       0.00000000       0.00000000
H        2.80615512       0.00000000      14.58243212        1       1.00000000       0.00000000       0.00000000       0.00000000       0.00000000       0.00000000       0.00000000
H        1.40307756       2.43020162      14.58243212        1       1.00000000       0.00000000       0.00000000       0.00000000       0.00000000       0.00000000       0.00000000
H        4.20923268       2.43020162      14.58243212        1       1.00000000       0.00000000       0.00000000       0.00000000       0.00000000       0.00000000       0.00000000
H        0.00732415       3.23594423      16.79604069        0       1.00000000       0.00000106      -0.00000021       0.00000119      -0.00000149      -0.00000012      -0.00000049
H        2.79883300       3.23594378      16.79604175        0       1.00000000      -0.00000027      -0.00000107      -0.00000054       0.00000020      -0.00000383       0.00000114
H        4.20923195       4.05033665       7.77136750        0       1.00000000      -0.00000022       0.00000077      -0.00000098       0.00000204      -0.00000187       0.00000055
H        4.20923415       4.05148575      19.01491208        0       1.00000000      -0.00000076      -0.00000009      -0.00000001      -0.00000015       0.00000063      -0.00000074
H        2.80615486       1.62013444       7.77136638        0       1.00000000       0.00000055      -0.00000094       0.00000013      -0.00000037       0.00000049       0.00000092
H        1.40307748       0.80073603      16.83184450        0       1.00000000       0.00000103      -0.00000002      -0.00000028       0.00000005       0.00000349       0.00000255
H        1.40307654       4.05033506       7.77136710        0       1.00000000      -0.00000224      -0.00000022      -0.00000075      -0.00000116       0.00000429       0.00000068
H        4.20923326       0.82634820      16.80075606        0       1.00000000      -0.00000051      -0.00000051       0.00000138       0.00000037      -0.00000014       0.00000007
H       -0.00000087       1.62013448       7.77136801        0       1.00000000      -0.00000057      -0.00000141      -0.00000077       0.00000016      -0.00000235      -0.00000166
21
Lattice="5.612310241546866 0.0 0.0 0.0 4.860403243099165 0.0 0.0 0.0 24.582432123328676" Properties=species:S:1:pos:R:3:tags:I:1:masses:R:1:momenta:R:3:forces:R:3 KEmax=27.14459056223422 iter=239999 volume=670.5618179858607 ns_energy=-14.08892301165678 last_walked_iter_clone=239534 energy=-14.088923011665065 stress="0.021480002103189667 2.74424219519891e-09 1.3447581613632447e-08 2.74424219519891e-09 0.021539551621289954 -1.4056309405601794e-08 1.3447581613632447e-08 -1.4056309405601794e-08 0.010720181519037118" pbc="T T F"
H        1.40307756       0.81006721      10.00000000        3       1.00000000       0.00000000       0.00000000       0.00000000       0.00000000       0.00000000       0.00000000
H        4.20923268       0.81006721      10.00000000        3       1.00000000       0.00000000       0.00000000       0.00000000       0.00000000       0.00000000       0.00000000
H        0.00000000       3.24026883      10.00000000        3       1.00000000       0.00000000       0.00000000       0.00000000       0.00000000       0.00000000       0.00000000
H        2.80615512       3.24026883      10.00000000        3       1.00000000       0.00000000       0.00000000       0.00000000       0.00000000       0.00000000       0.00000000
H        0.00000000       1.62013441      12.29121606        2       1.00000000       0.00000000       0.00000000       0.00000000       0.00000000       0.00000000       0.00000000
H        2.80615512       1.62013441      12.29121606        2       1.00000000       0.00000000       0.00000000       0.00000000       0.00000000       0.00000000       0.00000000
H        1.40307756       4.05033604      12.29121606        2       1.00000000       0.00000000       0.00000000       0.00000000       0.00000000       0.00000000       0.00000000
H        4.20923268       4.05033604      12.29121606        2       1.00000000       0.00000000       0.00000000       0.00000000       0.00000000       0.00000000       0.00000000
H        0.00000000       0.00000000      14.58243212        1       1.00000000       0.00000000       0.00000000       0.00000000       0.00000000       0.00000000       0.00000000
H        2.80615512       0.00000000      14.58243212        1       1.00000000       0.00000000       0.00000000       0.00000000       0.00000000       0.00000000       0.00000000
H        1.40307756       2.43020162      14.58243212        1       1.00000000       0.00000000       0.00000000       0.00000000       0.00000000       0.00000000       0.00000000
H        4.20923268       2.43020162      14.58243212        1       1.00000000       0.00000000       0.00000000       0.00000000       0.00000000       0.00000000       0.00000000
H        0.00732360       3.23594524      16.79604108        0       1.00000000      -0.00000114      -0.00000047      -0.00000064      -0.00000149      -0.00000012      -0.00000049
H        2.79883132       3.23594419      16.79604244        0       1.00000000       0.00000005       0.00000058      -0.00000102       0.00000020      -0.00000383       0.00000114
H        4.20923311       4.05033612       7.77136668        0       1.00000000       0.00000094      -0.00000058      -0.00000042       0.00000204      -0.00000187       0.00000055
H        4.20923486       4.05148462      19.01491273        0       1.00000000      -0.00000084       0.00000083      -0.00000031      -0.00000015       0.00000063      -0.00000074
H        2.80615545       1.62013449       7.77136683        0       1.00000000       0.00000124      -0.00000103       0.00000054      -0.00000037       0.00000049       0.00000092
H        1.40307767       0.80073675      16.83184362        0       1.00000000      -0.00000044       0.00000052      -0.00000068       0.00000005       0.00000349       0.00000255
H        1.40307805       4.05033660       7.77136757        0       1.00000000      -0.00000092       0.00000171      -0.00000011      -0.00000116       0.00000429       0.00000068
H        4.20923305       0.82634853      16.80075643        0       1.00000000      -0.00000150      -0.00000090      -0.00000072       0.00000037      -0.00000014       0.00000007
H        5.61230964       1.62013448       7.77136628        0       1.00000000       0.00000095       0.00000106       0.00000116       0.00000016      -0.00000235      -0.00000166
21
Lattice="5.612310241546866 0.0 0.0 0.0 4.860403243099165 0.0 0.0 0.0 24.582432123328676" Properties=species:S:1:pos:R:3:tags:I:1:masses:R:1:momenta:R:3:forces:R:3 KEmax=27.14459056223422 iter=239999 volume=670.5618179858607 ns_energy=-14.08892301165589 last_walked_iter_clone=239851 energy=-14.088923011665065 stress="0.021480002103189667 2.74424219519891e-09 1.3447581613632447e-08 2.74424219519891e-09 0.021539551621289954 -1.4056309405601794e-08 1.3447581613632447e-08 -1.4056309405601794e-08 0.010720181519037118" pbc="T T F"
H        1.40307756       0.81006721      10.00000000        3       1.00000000       0.00000000       0.00000000       0.00000000       0.00000000       0.00000000       0.00000000
H        4.20923268       0.81006721      10.00000000        3       1.00000000       0.00000000       0.00000000       0.00000000       0.00000000       0.00000000       0.00000000
H        0.00000000       3.24026883      10.00000000        3       1.00000000       0.00000000       0.00000000       0.00000000       0.00000000       0.00000000       0.00000000
H        2.80615512       3.24026883      10.00000000        3       1.00000000       0.00000000       0.00000000       0.00000000       0.00000000       0.00000000       0.00000000
H        0.00000000       1.62013441      12.29121606        2       1.00000000       0.00000000       0.00000000       0.00000000       0.00000000       0.00000000       0.00000000
H        2.80615512       1.62013441      12.29121606        2       1.00000000       0.00000000       0.00000000       0.00000000       0.00000000       0.00000000       0.00000000
H        1.40307756       4.05033604      12.29121606        2       1.00000000       0.00000000       0.00000000       0.00000000       0.00000000       0.00000000       0.00000000
H        4.20923268       4.05033604      12.29121606        2       1.00000000       0.00000000       0.00000000       0.00000000       0.00000000       0.00000000       0.00000000
H        0.00000000       0.00000000      14.58243212        1       1.00000000       0.00000000       0.00000000       0.00000000       0.00000000       0.00000000       0.00000000
H        2.80615512       0.00000000      14.58243212        1       1.00000000       0.00000000       0.00000000       0.00000000       0.00000000       0.00000000       0.00000000
H        1.40307756       2.43020162      14.58243212        1       1.00000000       0.00000000       0.00000000       0.00000000       0.00000000       0.00000000       0.00000000
H        4.20923268       2.43020162      14.58243212        1       1.00000000       0.00000000       0.00000000       0.00000000       0.00000000       0.00000000       0.00000000
H        0.00732343       3.23594348      16.79604154        0       1.00000000       0.00000045      -0.00000058      -0.00000028      -0.00000149      -0.00000012      -0.00000049
H        2.79883228       3.23594479      16.79604179        0       1.00000000       0.00000131      -0.00000044      -0.00000033       0.00000020      -0.00000383       0.00000114
H        4.20923359       4.05033609       7.77136672        0       1.00000000      -0.00000087       0.00000062      -0.00000079       0.00000204      -0.00000187       0.00000055
H        4.20923256       4.05148705      19.01491174        0       1.00000000      -0.00000273      -0.00000054       0.00000117      -0.00000015       0.00000063      -0.00000074
H        2.80615517       1.62013425       7.77136727        0       1.00000000      -0.00000006      -0.00000028      -0.00000013      -0.00000037       0.00000049       0.00000092
H        1.40307683       0.80073542      16.83184300        0       1.00000000       0.00000038       0.00000050      -0.00000018       0.00000005       0.00000349       0.00000255
H        1.40307844       4.05033573       7.77136701        0       1.00000000      -0.00000014      -0.00000054       0.00000077      -0.00000116       0.00000429       0.00000068
H        4.20923297       0.82634791      16.80075575        0       1.00000000       0.00000042      -0.00000160       0.00000016       0.00000037      -0.00000014       0.00000007
H        0.00000021       1.62013526       7.77136645        0       1.00000000      -0.00000040      -0.00000019      -0.00000035       0.00000016      -0.00000235      -0.00000166
21
Lattice="5.612310241546866 0.0 0.0 0.0 4.860403243099165 0.0 0.0 0.0 24.582432123328676" Properties=species:S:1:pos:R:3:tags:I:1:masses:R:1:momenta:R:3:forces:R:3 KEmax=27.14459056223422 iter=239999 volume=670.5618179858607 ns_energy=-14.088923011655973 last_walked_iter_clone=239864 energy=-14.088923011665065 stress="0.021480002103189667 2.74424219519891e-09 1.3447581613632447e-08 2.74424219519891e-09 0.021539551621289954 -1.4056309405601794e-08 1.3447581613632447e-08 -1.4056309405601794e-08 0.010720181519037118" pbc="T T F"
H        1.40307756       0.81006721      10.00000000        3       1.00000000       0.00000000       0.00000000       0.00000000       0.00000000       0.00000000       0.00000000
H        4.20923268       0.81006721      10.00000000        3       1.00000000       0.00000000       0.00000000       0.00000000       0.00000000       0.00000000       0.00000000
H        0.00000000       3.24026883      10.00000000        3       1.00000000       0.00000000       0.00000000       0.00000000       0.00000000       0.00000000       0.00000000
H        2.80615512       3.24026883      10.00000000        3       1.00000000       0.00000000       0.00000000       0.00000000       0.00000000       0.00000000       0.00000000
H        0.00000000       1.62013441      12.29121606        2       1.00000000       0.00000000       0.00000000       0.00000000       0.00000000       0.00000000       0.00000000
H        2.80615512       1.62013441      12.29121606        2       1.00000000       0.00000000       0.00000000       0.00000000       0.00000000       0.00000000       0.00000000
H        1.40307756       4.05033604      12.29121606        2       1.00000000       0.00000000       0.00000000       0.00000000       0.00000000       0.00000000       0.00000000
H        4.20923268       4.05033604      12.29121606        2       1.00000000       0.00000000       0.00000000       0.00000000       0.00000000       0.00000000       0.00000000
H        0.00000000       0.00000000      14.58243212        1       1.00000000       0.00000000       0.00000000       0.00000000       0.00000000       0.00000000       0.00000000
H        2.80615512       0.00000000      14.58243212        1       1.00000000       0.00000000       0.00000000       0.00000000       0.00000000       0.00000000       0.00000000
H        1.40307756       2.43020162      14.58243212        1       1.00000000       0.00000000       0.00000000       0.00000000       0.00000000       0.00000000       0.00000000
H        4.20923268       2.43020162      14.58243212        1       1.00000000       0.00000000       0.00000000       0.00000000       0.00000000       0.00000000       0.00000000
H        0.00732310       3.23594418      16.79604179        0       1.00000000      -0.00000058      -0.00000036       0.00000045      -0.00000149      -0.00000012      -0.00000049
H        2.79883194       3.23594440      16.79604087        0       1.00000000       0.00000177       0.00000067      -0.00000013       0.00000020      -0.00000383       0.00000114
H        4.20923162       4.05033666       7.77136700        0       1.00000000      -0.00000105      -0.00000008      -0.00000024       0.00000204      -0.00000187       0.00000055
H        4.20923328       4.05148487      19.01491319        0       1.00000000      -0.00000020       0.00000061       0.00000074      -0.00000015       0.00000063      -0.00000074
H        2.80615428       1.62013369       7.77136667        0       1.00000000      -0.00000157      -0.00000076       0.00000143      -0.00000037       0.00000049       0.00000092
H        1.40307667       0.80073618      16.83184421        0       1.00000000      -0.00000062      -0.00000045      -0.00000111       0.00000005       0.00000349       0.00000255
H        1.40307720       4.05033513       7.77136740        0       1.00000000       0.00000241      -0.00000067      -0.00000001      -0.00000116       0.00000429       0.00000068
H        4.20923177       0.82634784      16.80075635        0       1.00000000      -0.00000001      -0.00000032      -0.00000168       0.00000037      -0.00000014       0.00000007
H       -0.00000105       1.62013371       7.77136732        0       1.00000000       0.00000029      -0.00000031       0.00000062       0.00000016      -0.00000235      -0.00000166
21
Lattice="5.612310241546866 0.0 0.0 0.0 4.860403243099165 0.0 0.0 0.0 24.582432123328676" Properties=species:S:1:pos:R:3:tags:I:1:masses:R:1:momenta:R:3:forces:R:3 KEmax=27.14459056223422 iter=239999 volume=670.5618179858607 ns_energy=-14.088923011656302 last_walked_iter_clone=239806 energy=-14.088923011665065 stress="0.021480002103189667 2.74424219519891e-09 1.3447581613632447e-08 2.74424219519891e-09 0.021539551621289954 -1.4056309405601794e-08 1.3447581613632447e-08 -1.4056309405601794e-08 0.010720181519037118" pbc="T T F"
H        1.40307756       0.81006721      10.00000000        3       1.00000000       0.00000000       0.00000000       0.00000000       0.00000000       0.00000000       0.00000000
H        4.20923268       0.81006721      10.00000000        3       1.00000000       0.00000000       0.00000000       0.00000000       0.00000000       0.00000000       0.00000000
H        0.00000000       3.24026883      10.00000000        3       1.00000000       0.00000000       0.00000000       0.00000000       0.00000000       0.00000000       0.00000000
H        2.80615512       3.24026883      10.00000000        3       1.00000000       0.00000000       0.00000000       0.00000000       0.00000000       0.00000000       0.00000000
H        0.00000000       1.62013441      12.29121606        2       1.00000000       0.00000000       0.00000000       0.00000000       0.00000000       0.00000000       0.00000000
H        2.80615512       1.62013441      12.29121606        2       1.00000000       0.00000000       0.00000000       0.00000000       0.00000000       0.00000000       0.00000000
H        1.40307756       4.05033604      12.29121606        2       1.00000000       0.00000000       0.00000000       0.00000000       0.00000000       0.00000000       0.00000000
H        4.20923268       4.05033604      12.29121606        2       1.00000000       0.00000000       0.00000000       0.00000000       0.00000000       0.00000000       0.00000000
H        0.00000000       0.00000000      14.58243212        1       1.00000000       0.00000000       0.00000000       0.00000000       0.00000000       0.00000000       0.00000000
H        2.80615512       0.00000000      14.58243212        1       1.00000000       0.00000000       0.00000000       0.00000000       0.00000000       0.00000000       0.00000000
H        1.40307756       2.43020162      14.58243212        1       1.00000000       0.00000000       0.00000000       0.00000000       0.00000000       0.00000000       0.00000000
H        4.20923268       2.43020162      14.58243212        1       1.00000000       0.00000000       0.00000000       0.00000000       0.00000000       0.00000000       0.00000000
H        0.00732315       3.23594450      16.79604152        0       1.00000000      -0.00000030       0.00000235      -0.00000227      -0.00000149      -0.00000012      -0.00000049
H        2.79883268       3.23594442      16.79604198        0       1.00000000       0.00000116       0.00000148      -0.00000054       0.00000020      -0.00000383       0.00000114
H        4.20923245       4.05033576       7.77136682        0       1.00000000      -0.00000000      -0.00000094       0.00000135       0.00000204      -0.00000187       0.00000055
H        4.20923378       4.05148752      19.01491323        0       1.00000000      -0.00000055      -0.00000032       0.00000036      -0.00000015       0.00000063      -0.00000074
H        2.80615494       1.62013404       7.77136648        0       1.00000000       0.00000167      -0.00000077       0.00000096      -0.00000037       0.00000049       0.00000092
H        1.40307781       0.80073544      16.83184377        0       1.00000000       0.00000144       0.00000079      -0.00000014       0.00000005       0.00000349       0.00000255