21
Lattice="5.612310241546866 0.0 0.0 0.0 4.860403243099165 0.0 0.0 0.0 24.582432123328676" Properties=species:S:1:pos:R:3:tags:I:1:masses:R:1:momenta:R:3:forces:R:3 KEmax=27.14459056223422 iter=186425 volume=670.5618179858607 ns_energy=-14.088923010849827 last_walked_iter_clone=186142 energy=-14.088923011246147 stress="0.0214800321952487 4.455684131495133e-08 7.8941326494931e-08 4.455684131495133e-08 0.02153955900835381 8.717681565027069e-08 7.8941326494931e-08 8.717681565027069e-08 0.01072031205350127" pbc="T T F"
H        1.40307756       0.81006721      10.00000000        3       1.00000000       0.00000000       0.00000000       0.00000000       0.00000000       0.00000000       0.00000000
H        4.20923268       0.81006721      10.00000000        3       1.00000000       0.00000000       0.00000000       0.00000000       0.00000000       0.00000000       0.00000000
H        0.00000000       3.24026883      10.00000000        3       1.00000000       0.00000000       0.00000000       0.00000000       0.00000000       0.00000000       0.00000000
H        2.80615512       3.24026883      10.00000000        3       1.00000000       0.00000000       0.00000000       0.00000000       0.00000000       0.00000000       0.00000000
H        0.00000000       1.62013441      12.29121606        2       1.00000000       0.00000000       0.00000000       0.00000000       0.00000000       0.00000000       0.00000000
H        2.80615512       1.62013441      12.29121606        2       1.00000000       0.00000000       0.00000000       0.00000000       0.00000000       0.00000000       0.00000000
H        1.40307756       4.05033604      12.29121606        2       1.00000000       0.00000000       0.00000000       0.00000000       0.00000000       0.00000000       0.00000000
H        4.20923268       4.05033604      12.29121606        2       1.00000000       0.00000000       0.00000000       0.00000000       0.00000000       0.00000000       0.00000000
H        0.00000000       0.00000000      14.58243212        1       1.00000000       0.00000000       0.00000000       0.00000000       0.00000000       0.00000000       0.00000000
H        2.80615512       0.00000000      14.58243212        1       1.00000000       0.00000000       0.00000000       0.00000000       0.00000000       0.00000000       0.00000000
H        1.40307756       2.43020162      14.58243212        1       1.00000000       0.00000000       0.00000000       0.00000000       0.00000000       0.00000000       0.00000000
H        4.20923268       2.43020162      14.58243212        1       1.00000000       0.00000000       0.00000000       0.00000000       0.00000000       0.00000000       0.00000000
H        0.00732103       3.23594292      16.79604028        0       1.00000000      -0.00000697      -0.00000094       0.00000816      -0.00002631       0.00000064       0.00000359
H        2.79882495       3.23594599      16.79604171        0       1.00000000       0.00000169       0.00000022      -0.00000463       0.00000292       0.00000675       0.00000252
H        4.20923062       4.05033894       7.77136931        0       1.00000000      -0.00000228       0.00001233      -0.00000255       0.00000233       0.00000880       0.00000148
H        4.20924926       4.05146559      19.01491740        0       1.00000000      -0.00000229      -0.00000574       0.00000132       0.00000044      -0.00000633       0.00000328
H        2.80615555       1.62013299       7.77136652        0       1.00000000      -0.00000631      -0.00000116       0.00001047      -0.00000243      -0.00000474       0.00001593
H        1.40307497       0.80073674      16.83184150        0       1.00000000      -0.00000015      -0.00000245       0.00000047      -0.00001375      -0.00000068      -0.00000886
H        1.40307589       4.05033962       7.77136551        0       1.00000000       0.00001193      -0.00000023      -0.00000552      -0.00000933       0.00000685       0.00001295
H        4.20922989       0.82634333      16.80075861        0       1.00000000      -0.00000437      -0.00000149      -0.00000765       0.00002619      -0.00000149       0.00000056
H        0.00000215       1.62013439       7.77136169        0       1.00000000      -0.00000427      -0.00000873      -0.00000352       0.00001012      -0.00000457      -0.00000845
21
Lattice="5.612310241546866 0.0 0.0 0.0 4.860403243099165 0.0 0.0 0.0 24.582432123328676" Properties=species:S:1:pos:R:3:tags:I:1:masses:R:1:momenta:R:3:forces:R:3 KEmax=27.14459056223422 iter=186425 volume=670.5618179858607 ns_energy=-14.088923010845892 last_walked_iter_clone=186329 energy=-14.088923011246147 stress="0.0214800321952487 4.455684131495133e-08 7.8941326494931e-08 4.455684131495133e-08 0.02153955900835381 8.717681565027069e-08 7.8941326494931e-08 8.717681565027069e-08 0.01072031205350127" pbc="T T F"
H        1.40307756       0.81006721      10.00000000        3       1.00000000       0.00000000       0.00000000       0.00000000       0.00000000       0.00000000       0.00000000
H        4.20923268       0.81006721      10.00000000        3       1.00000000       0.00000000       0.00000000       0.00000000       0.00000000       0.00000000       0.00000000
H        0.00000000       3.24026883      10.00000000        3       1.00000000       0.00000000       0.00000000       0.00000000       0.00000000       0.00000000       0.00000000
H        2.80615512       3.24026883      10.00000000        3       1.00000000       0.00000000       0.00000000       0.00000000       0.00000000       0.00000000       0.00000000
H        0.00000000       1.62013441      12.29121606        2       1.00000000       0.00000000       0.00000000       0.00000000       0.00000000       0.00000000       0.00000000
H        2.80615512       1.62013441      12.29121606        2       1.00000000       0.00000000       0.00000000       0.00000000       0.00000000       0.00000000       0.00000000
H        1.40307756       4.05033604      12.29121606        2       1.00000000       0.00000000       0.00000000       0.00000000       0.00000000       0.00000000       0.00000000
H        4.20923268       4.05033604      12.29121606        2       1.00000000       0.00000000       0.00000000       0.00000000       0.00000000       0.00000000       0.00000000
H        0.00000000       0.00000000      14.58243212        1       1.00000000       0.00000000       0.00000000       0.00000000       0.00000000       0.00000000       0.00000000
H        2.80615512       0.00000000      14.58243212        1       1.00000000       0.00000000       0.00000000       0.00000000       0.00000000       0.00000000       0.00000000
H        1.40307756       2.43020162      14.58243212        1       1.00000000       0.00000000       0.00000000       0.00000000       0.00000000       0.00000000       0.00000000
H        4.20923268       2.43020162      14.58243212        1       1.00000000       0.00000000       0.00000000       0.00000000       0.00000000       0.00000000       0.00000000
H        0.00732008       3.23594313      16.79604049        0       1.00000000       0.00000268      -0.00000575       0.00001017      -0.00002631       0.00000064       0.00000359
H        2.79883214       3.23594383      16.79604146        0       1.00000000       0.00000607      -0.00000364       0.00000159       0.00000292       0.00000675       0.00000252
H        4.20923149       4.05033637       7.77136941        0       1.00000000       0.00000430      -0.00000077      -0.00000041       0.00000233       0.00000880       0.00000148
H        4.20923142       4.05148626      19.01491516        0       1.00000000       0.00000702      -0.00000929      -0.00000221       0.00000044      -0.00000633       0.00000328
H        2.80615340       1.62013090       7.77136942        0       1.00000000       0.00001154       0.00001054       0.00000650      -0.00000243      -0.00000474       0.00001593
H        1.40308209       0.80073265      16.83184443        0       1.00000000       0.00001173       0.00000279       0.00000761      -0.00001375      -0.00000068      -0.00000886
H        1.40307761       4.05033550       7.77137040        0       1.00000000      -0.00000382       0.00000182       0.00000134      -0.00000933       0.00000685       0.00001295
H        4.20923668       0.82634477      16.80075474        0       1.00000000      -0.00001264      -0.00000103       0.00001008       0.00002619      -0.00000149       0.00000056
H        5.61230642       1.62013489       7.77137186        0       1.00000000      -0.00000498       0.00001197       0.00000160       0.00001012      -0.00000457      -0.00000845
21
Lattice="5.612310241546866 0.0 0.0 0.0 4.860403243099165 0.0 0.0 0.0 24.582432123328676" Properties=species:S:1:pos:R:3:tags:I:1:masses:R:1:momenta:R:3:forces:R:3 KEmax=27.14459056223422 iter=186425 volume=670.5618179858607 ns_energy=-14.088923010856798 last_walked_iter_clone=186360 energy=-14.088923011246147 stress="0.0214800321952487 4.455684131495133e-08 7.8941326494931e-08 4.455684131495133e-08 0.02153955900835381 8.717681565027069e-08 7.8941326494931e-08 8.717681565027069e-08 0.01072031205350127" pbc="T T F"
H        1.40307756       0.81006721      10.00000000        3       1.00000000       0.00000000       0.00000000       0.00000000       0.00000000       0.00000000       0.00000000
H        4.20923268       0.81006721      10.00000000        3       1.00000000       0.00000000       0.00000000       0.00000000       0.00000000       0.00000000       0.00000000
H        0.00000000       3.24026883      10.00000000        3       1.00000000       0.00000000       0.00000000       0.00000000       0.00000000       0.00000000       0.00000000
H        2.80615512       3.24026883      10.00000000        3       1.00000000       0.00000000       0.00000000       0.00000000       0.00000000       0.00000000       0.00000000
H        0.00000000       1.62013441      12.29121606        2       1.00000000       0.00000000       0.00000000       0.00000000       0.00000000       0.00000000       0.00000000
H        2.80615512       1.62013441      12.29121606        2       1.00000000       0.00000000       0.00000000       0.00000000       0.00000000       0.00000000       0.00000000
H        1.40307756       4.05033604      12.29121606        2       1.00000000       0.00000000       0.00000000       0.00000000       0.00000000       0.00000000       0.00000000
H        4.20923268       4.05033604      12.29121606        2       1.00000000       0.00000000       0.00000000       0.00000000       0.00000000       0.00000000       0.00000000
H        0.00000000       0.00000000      14.58243212        1       1.00000000       0.00000000       0.00000000       0.00000000       0.00000000       0.00000000       0.00000000
H        2.80615512       0.00000000      14.58243212        1       1.00000000       0.00000000       0.00000000       0.00000000       0.00000000       0.00000000       0.00000000
H        1.40307756       2.43020162      14.58243212        1       1.00000000       0.00000000       0.00000000       0.00000000       0.00000000       0.00000000       0.00000000
H        4.20923268       2.43020162      14.58243212        1       1.00000000       0.00000000       0.00000000       0.00000000       0.00000000       0.00000000       0.00000000
H        0.00732591       3.23594731      16.79604562        0       1.00000000      -0.00000281      -0.00000080      -0.00000691      -0.00002631       0.00000064       0.00000359
H        2.79883603       3.23594504      16.79603345        0       1.00000000       0.00001069      -0.00000317       0.00000185       0.00000292       0.00000675       0.00000252
H        4.20922989       4.05033223       7.77136841        0       1.00000000       0.00000634      -0.00000371       0.00000093       0.00000233       0.00000880       0.00000148
H        4.20922381       4.05148389      19.01490866        0       1.00000000      -0.00000597       0.00001222      -0.00000077       0.00000044      -0.00000633       0.00000328
H        2.80614520       1.62012714       7.77136814        0       1.00000000       0.00000353      -0.00000866       0.00000454      -0.00000243      -0.00000474       0.00001593
H        1.40308119       0.80073346      16.83184254        0       1.00000000      -0.00000285       0.00000143      -0.00000318      -0.00001375      -0.00000068      -0.00000886
H        1.40307187       4.05032908       7.77136523        0       1.00000000       0.00000960       0.00000437       0.00000055      -0.00000933       0.00000685       0.00001295
H        4.20922920       0.82634852      16.80075954        0       1.00000000       0.00000089      -0.00000303       0.00000201       0.00002619      -0.00000149       0.00000056
H        5.61230893       1.62013067       7.77136645        0       1.00000000       0.00000391      -0.00000150       0.00000282       0.00001012      -0.00000457      -0.00000845
21
Lattice="5.612310241546866 0.0 0.0 0.0 4.860403243099165 0.0 0.0 0.0 24.582432123328676" Properties=species:S:1:pos:R:3:tags:I:1:masses:R:1:momenta:R:3:forces:R:3 KEmax=27.14459056223422 iter=186425 volume=670.5618179858607 ns_energy=-14.08892301084954 last_walked_iter_clone=186289 energy=-14.088923011246147 stress="0.0214800321952487 4.455684131495133e-08 7.8941326494931e-08 4.455684131495133e-08 0.02153955900835381 8.717681565027069e-08 7.8941326494931e-08 8.717681565027069e-08 0.01072031205350127" pbc="T T F"
H        1.40307756       0.81006721      10.00000000        3       1.00000000       0.00000000       0.00000000       0.00000000       0.00000000       0.00000000       0.00000000
H        4.20923268       0.81006721      10.00000000        3       1.00000000       0.00000000       0.00000000       0.00000000       0.00000000       0.00000000       0.00000000
H        0.00000000       3.24026883      10.00000000        3       1.00000000       0.00000000       0.00000000       0.00000000       0.00000000       0.00000000       0.00000000
H        2.80615512       3.24026883      10.00000000        3       1.00000000       0.00000000       0.00000000       0.00000000       0.00000000       0.00000000       0.00000000
H        0.00000000       1.62013441      12.29121606        2       1.00000000       0.00000000       0.00000000       0.00000000       0.00000000       0.00000000       0.00000000
H        2.80615512       1.62013441      12.29121606        2       1.00000000       0.00000000       0.00000000       0.00000000       0.00000000       0.00000000       0.00000000
H        1.40307756       4.05033604      12.29121606        2       1.00000000       0.00000000       0.00000000       0.00000000       0.00000000       0.00000000       0.00000000
H        4.20923268       4.05033604      12.29121606        2       1.00000000       0.00000000       0.00000000       0.00000000       0.00000000       0.00000000       0.00000000
H        0.00000000       0.00000000      14.58243212        1       1.00000000       0.00000000       0.00000000       0.00000000       0.00000000       0.00000000       0.00000000
H        2.80615512       0.00000000      14.58243212        1       1.00000000       0.00000000       0.00000000       0.00000000       0.00000000       0.00000000       0.00000000
H        1.40307756       2.43020162      14.58243212        1       1.00000000       0.00000000       0.00000000       0.00000000       0.00000000       0.00000000       0.00000000
H        4.20923268       2.43020162      14.58243212        1       1.00000000       0.00000000       0.00000000       0.00000000       0.00000000       0.00000000       0.00000000
H        0.00732773       3.23594800      16.79604214        0       1.00000000      -0.00001243       0.00000796       0.00000316      -0.00002631       0.00000064       0.00000359
H        2.79883422       3.23595013      16.79604329        0       1.00000000       0.00000261      -0.00000357       0.00001148       0.00000292       0.00000675       0.00000252
H        4.20923620       4.05033027       7.77137078        0       1.00000000      -0.00000748       0.00000199      -0.00000138       0.00000233       0.00000880       0.00000148
H        4.20923749       4.05149634      19.01490631        0       1.00000000      -0.00001224      -0.00000666       0.00000532       0.00000044      -0.00000633       0.00000328
H        2.80615058       1.62013063       7.77136794        0       1.00000000       0.00000035      -0.00000107      -0.00000673      -0.00000243      -0.00000474       0.00001593
H        1.40308018       0.80073912      16.83184368        0       1.00000000      -0.00000048       0.00000473       0.00000431      -0.00001375      -0.00000068      -0.00000886
H        1.40308159       4.05032877       7.77136502        0       1.00000000      -0.00000210      -0.00000604       0.00000292      -0.00000933       0.00000685       0.00001295
H        4.20923342       0.82635678      16.80075634        0       1.00000000       0.00000505      -0.00001165       0.00000501       0.00002619      -0.00000149       0.00000056
H       -0.00000569       1.62013209       7.77136679        0       1.00000000      -0.00000373       0.00000011       0.00000277       0.00001012      -0.00000457      -0.00000845
21
Lattice="5.612310241546866 0.0 0.0 0.0 4.860403243099165 0.0 0.0 0.0 24.582432123328676" Properties=species:S:1:pos:R:3:tags:I:1:masses:R:1:momenta:R:3:forces:R:3 KEmax=27.14459056223422 iter=186425 volume=670.5618179858607 ns_energy=-14.08892301085915 last_walked_iter_clone=186398 energy=-14.088923011246147 stress="0.0214800321952487 4.455684131495133e-08 7.8941326494931e-08 4.455684131495133e-08 0.02153955900835381 8.717681565027069e-08 7.8941326494931e-08 8.717681565027069e-08 0.01072031205350127" pbc="T T F"
H        1.40307756       0.81006721      10.00000000        3       1.00000000       0.00000000       0.00000000       0.00000000       0.00000000       0.00000000       0.00000000
H        4.20923268       0.81006721      10.00000000        3       1.00000000       0.00000000       0.00000000       0.00000000       0.00000000       0.00000000       0.00000000
H        0.00000000       3.24026883      10.00000000        3       1.00000000       0.00000000       0.00000000       0.00000000       0.00000000       0.00000000       0.00000000
H        2.80615512       3.24026883      10.00000000        3       1.00000000       0.00000000       0.00000000       0.00000000       0.00000000       0.00000000       0.00000000
H        0.00000000       1.62013441      12.29121606        2       1.00000000       0.00000000       0.00000000       0.00000000       0.00000000       0.00000000       0.00000000
H        2.80615512       1.62013441      12.29121606        2       1.00000000       0.00000000       0.00000000       0.00000000       0.00000000       0.00000000       0.00000000
H        1.40307756       4.05033604      12.29121606        2       1.00000000       0.00000000       0.00000000       0.00000000       0.00000000       0.00000000       0.00000000
H        4.20923268       4.05033604      12.29121606        2       1.00000000       0.00000000       0.00000000       0.00000000       0.00000000       0.00000000       0.00000000
H        0.00000000       0.00000000      14.58243212        1       1.00000000       0.00000000       0.00000000       0.00000000       0.00000000       0.00000000       0.00000000
H        2.80615512       0.00000000      14.58243212        1       1.00000000       0.00000000       0.00000000       0.00000000       0.00000000       0.00000000       0.00000000
H        1.40307756       2.43020162      14.58243212        1       1.00000000       0.00000000       0.00000000       0.00000000       0.00000000       0.00000000       0.00000000
H        4.20923268       2.43020162      14.58243212        1       1.00000000       0.00000000       0.00000000       0.00000000       0.00000000       0.00000000       0.00000000
H        0.00732391       3.23594971      16.79604348        0       1.00000000       0.00000712       0.00000022      -0.00000508      -0.00002631       0.00000064       0.00000359
H        2.79883217       3.23593977      16.79604433        0       1.00000000      -0.00000706      -0.00000484       0.00000791       0.00000292       0.00000675       0.00000252
H        4.20923278       4.05032530       7.77136465        0       1.00000000       0.00000209       0.00000597       0.00000392       0.00000233       0.00000880       0.00000148
H        4.20922399       4.05148350      19.01491757        0       1.00000000       0.00000071      -0.00000450      -0.00000139       0.00000044      -0.00000633       0.00000328
H        2.80616172       1.62013243       7.77136839        0       1.00000000       0.00000978      -0.00000309      -0.00000519      -0.00000243      -0.00000474       0.00001593
H        1.40307972       0.80073700      16.83184543        0       1.00000000      -0.00000838       0.00000672      -0.00000334      -0.00001375      -0.00000068      -0.00000886
H        1.40308044       4.05033572       7.77136671        0       1.00000000       0.00000430       0.00000806      -0.00000064      -0.00000933       0.00000685       0.00001295
H        4.20923214       0.82634641      16.80075508        0       1.00000000       0.00000009       0.00000286      -0.00000021       0.00002619      -0.00000149       0.00000056
H        5.61231398       1.62013510       7.77137275        0       1.00000000      -0.00000836      -0.00000517      -0.00000580       0.00001012      -0.00000457      -0.00000845
21
Lattice="5.612310241546866 0.0 0.0 0.0 4.860403243099165 0.0 0.0 0.0 24.582432123328676" Properties=species:S:1:pos:R:3:tags:I:1:masses:R:1:momenta:R:3:forces:R:3 KEmax=27.14459056223422 iter=186425 volume=670.5618179858607 ns_energy=-14.088923010852199 last_walked_iter_clone=186224 energy=-14.088923011246147 stress="0.0214800321952487 4.455684131495133e-08 7.8941326494931e-08 4.455684131495133e-08 0.02153955900835381 8.717681565027069e-08 7.8941326494931e-08 8.717681565027069e-08 0.01072031205350127" pbc="T T F"
H        1.40307756       0.81006721      10.00000000        3       1.00000000       0.00000000       0.00000000       0.00000000       0.00000000       0.00000000       0.00000000
H        4.20923268       0.81006721      10.00000000        3       1.00000000       0.00000000       0.00000000       0.00000000       0.00000000       0.00000000       0.00000000
H        0.00000000       3.24026883      10.00000000        3       1.00000000       0.00000000       0.00000000       0.00000000       0.00000000       0.00000000       0.00000000
H        2.80615512       3.24026883      10.00000000        3       1.00000000       0.00000000       0.00000000       0.00000000       0.00000000       0.00000000       0.00000000
H        0.00000000       1.62013441      12.29121606        2       1.00000000       0.00000000       0.00000000       0.00000000       0.00000000       0.00000000       0.00000000
H        2.80615512       1.62013441      12.29121606        2       1.00000000       0.00000000       0.00000000       0.00000000       0.00000000       0.00000000       0.00000000
H        1.40307756       4.05033604      12.29121606        2       1.00000000       0.00000000       0.00000000       0.00000000       0.00000000       0.00000000       0.00000000
H        4.20923268       4.05033604      12.29121606        2       1.00000000       0.00000000       0.00000000       0.00000000       0.00000000       0.00000000       0.00000000
H        0.00000000       0.00000000      14.58243212        1       1.00000000       0.00000000       0.00000000       0.00000000       0.00000000       0.00000000       0.00000000
H        2.80615512       0.00000000      14.58243212        1       1.00000000       0.00000000       0.00000000       0.00000000       0.00000000       0.00000000       0.00000000
H        1.40307756       2.43020162      14.58243212        1       1.00000000       0.00000000       0.00000000       0.00000000       0.00000000       0.00000000       0.00000000
H        4.20923268       2.43020162      14.58243212        1       1.00000000       0.00000000       0.00000000       0.00000000       0.00000000       0.00000000       0.00000000
H        0.00731791       3.23594050      16.79604051        0       1.00000000       0.00000334      -0.00000763       0.00000808      -0.00002631       0.00000064       0.00000359
H        2.79883299       3.23593992      16.79604206        0       1.00000000      -0.00000458       0.00000529      -0.00000259       0.00000292       0.00000675       0.00000252
H        4.20922834       4.05033356       7.77136763        0       1.00000000       0.00000665      -0.00000084       0.00000062       0.00000233       0.00000880       0.00000148
H        4.20922722       4.05148303      19.01492241        0       1.00000000      -0.00000099       0.00000280       0.00001049       0.00000044      -0.00000633       0.00000328
H        2.80615920       1.62012723       7.77136549        0       1.00000000       0.00000015       0.00000529       0.00000991      -0.00000243      -0.00000474       0.00001593
H        1.40308019       0.80072871      16.83184107        0       1.00000000      -0.00000420       0.00000738      -0.00001168      -0.00001375      -0.00000068      -0.00000886
H        1.40307422       4.05033608       7.77136750        0       1.00000000       0.00000490      -0.00000447      -0.00000439      -0.00000933       0.00000685       0.00001295
H        4.20923630       0.82634425      16.80075629        0       1.00000000       0.00000579       0.00000089      -0.00000232       0.00002619      -0.00000149       0.00000056
H        5.61231173       1.62012824       7.77136666        0       1.00000000      -0.00000096      -0.00000387       0.00000515       0.00001012      -0.00000457      -0.00000845
21
Lattice="5.612310241546866 0.0 0.0 0.0 4.860403243099165 0.0 0.0 0.0 24.582432123328676" Properties=species:S:1:pos:R:3:tags:I:1:masses:R:1:momenta:R:3:forces:R:3 KEmax=27.14459056223422 iter=186425 volume=670.5618179858607 ns_energy=-14.088923010854947 last_walked_iter_clone=186363 energy=-14.088923011246147 stress="0.0214800321952487 4.455684131495133e-08 7.8941326494931e-08 4.455684131495133e-08 0.02153955900835381 8.717681565027069e-08 7.8941326494931e-08 8.717681565027069e-08 0.01072031205350127" pbc="T T F"
H        1.40307756       0.81006721      10.00000000        3       1.00000000       0.00000000       0.00000000       0.00000000       0.00000000       0.00000000       0.00000000
H        4.20923268       0.81006721      10.00000000        3       1.00000000       0.00000000       0.00000000       0.00000000       0.00000000       0.00000000       0.00000000
H        0.00000000       3.24026883      10.00000000        3       1.00000000       0.00000000       0.00000000       0.00000000       0.00000000       0.00000000       0.00000000
H        2.80615512       3.24026883      10.00000000        3       1.00000000       0.00000000       0.00000000       0.00000000       0.00000000       0.00000000       0.00000000
H        0.00000000       1.62013441      12.29121606        2       1.00000000       0.00000000       0.00000000       0.00000000       0.00000000       0.00000000       0.00000000
H        2.80615512       1.62013441      12.29121606        2       1.00000000       0.00000000       0.00000000       0.00000000       0.00000000       0.00000000       0.00000000
H        1.40307756       4.05033604      12.29121606        2       1.00000000       0.00000000       0.00000000       0.00000000       0.00000000       0.00000000       0.00000000
H        4.20923268       4.05033604      12.29121606        2       1.00000000       0.00000000       0.00000000       0.00000000       0.00000000       0.00000000       0.00000000
H        0.00000000       0.00000000      14.58243212        1       1.00000000       0.00000000       0.00000000       0.00000000       0.00000000       0.00000000       0.00000000
H        2.80615512       0.00000000      14.58243212        1       1.00000000       0.00000000       0.00000000       0.00000000       0.00000000       0.00000000       0.00000000
H        1.40307756       2.43020162      14.58243212        1       1.00000000       0.00000000       0.00000000       0.00000000       0.00000000       0.00000000       0.00000000
H        4.20923268       2.43020162      14.58243212        1       1.00000000       0.00000000       0.00000000       0.00000000       0.00000000       0.00000000       0.00000000
H        0.00732587       3.23594519      16.79603427        0       1.00000000      -0.00000144      -0.00000278       0.00000727      -0.00002631       0.00000064       0.00000359
H        2.79883522       3.23594461      16.79603966        0       1.00000000      -0.00000158      -0.00000096      -0.00000383       0.00000292       0.00000675       0.00000252
H        4.20924008       4.05033509       7.77136523        0       1.00000000      -0.00000395       0.00000947      -0.00000741       0.00000233       0.00000880       0.00000148
H        4.20923993       4.05147711      19.01490380        0       1.00000000      -0.00000056       0.00000716      -0.00000273       0.00000044      -0.00000633       0.00000328
H        2.80615622       1.62013221       7.77136772        0       1.00000000      -0.00000384      -0.00000499       0.00001580      -0.00000243      -0.00000474       0.00001593
H        1.40308731       0.80073582      16.83184332        0       1.00000000       0.00000075      -0.00000646       0.00000757      -0.00001375      -0.00000068      -0.00000886