21
Lattice="5.612310241546866 0.0 0.0 0.0 4.860403243099165 0.0 0.0 0.0 24.582432123328676" Properties=species:S:1:pos:R:3:tags:I:1:masses:R:1:momenta:R:3:forces:R:3 KEmax=27.14459056223422 iter=219400 volume=670.5618179858607 ns_energy=-14.088923011605196 last_walked_iter_clone=219259 energy=-14.088923011642786 stress="0.0214800212154765 -7.938450492555397e-09 -1.8619830646518715e-08 -7.938450492555397e-09 0.021539541007142518 1.8609008985305545e-09 -1.8619830646518715e-08 1.8609008985305545e-09 0.010720193410286906" pbc="T T F"
H        1.40307756       0.81006721      10.00000000        3       1.00000000       0.00000000       0.00000000       0.00000000       0.00000000       0.00000000       0.00000000
H        4.20923268       0.81006721      10.00000000        3       1.00000000       0.00000000       0.00000000       0.00000000       0.00000000       0.00000000       0.00000000
H        0.00000000       3.24026883      10.00000000        3       1.00000000       0.00000000       0.00000000       0.00000000       0.00000000       0.00000000       0.00000000
H        2.80615512       3.24026883      10.00000000        3       1.00000000       0.00000000       0.00000000       0.00000000       0.00000000       0.00000000       0.00000000
H        0.00000000       1.62013441      12.29121606        2       1.00000000       0.00000000       0.00000000       0.00000000       0.00000000       0.00000000       0.00000000
H        2.80615512       1.62013441      12.29121606        2       1.00000000       0.00000000       0.00000000       0.00000000       0.00000000       0.00000000       0.00000000
H        1.40307756       4.05033604      12.29121606        2       1.00000000       0.00000000       0.00000000       0.00000000       0.00000000       0.00000000       0.00000000
H        4.20923268       4.05033604      12.29121606        2       1.00000000       0.00000000       0.00000000       0.00000000       0.00000000       0.00000000       0.00000000
H        0.00000000       0.00000000      14.58243212        1       1.00000000       0.00000000       0.00000000       0.00000000       0.00000000       0.00000000       0.00000000
H        2.80615512       0.00000000      14.58243212        1       1.00000000       0.00000000       0.00000000       0.00000000       0.00000000       0.00000000       0.00000000
H        1.40307756       2.43020162      14.58243212        1       1.00000000       0.00000000       0.00000000       0.00000000       0.00000000       0.00000000       0.00000000
H        4.20923268       2.43020162      14.58243212        1       1.00000000       0.00000000       0.00000000       0.00000000       0.00000000       0.00000000       0.00000000
H        0.00732338       3.23594538      16.79604009        0       1.00000000       0.00000285       0.00000011       0.00000164       0.00000039       0.00000110       0.00000222
H        2.79883208       3.23594474      16.79604298        0       1.00000000      -0.00000336       0.00000098      -0.00000125      -0.00000216      -0.00000211      -0.00000263
H        4.20923335       4.05033528       7.77136696        0       1.00000000      -0.00000040       0.00000071      -0.00000094       0.00000197      -0.00000306       0.00000431
H        4.20923305       4.05148691      19.01491286        0       1.00000000       0.00000183       0.00000021      -0.00000014       0.00000077       0.00000067       0.00000246
H        2.80615557       1.62013337       7.77136898        0       1.00000000      -0.00000335       0.00000212       0.00000095       0.00000256      -0.00000200       0.00000051
H        1.40307520       0.80073735      16.83184392        0       1.00000000      -0.00000243      -0.00000147       0.00000145      -0.00000056      -0.00000194       0.00000146
H        1.40307882       4.05033590       7.77136735        0       1.00000000      -0.00000240       0.00000133       0.00000059       0.00000350       0.00000221      -0.00000220
H        4.20923145       0.82634917      16.80075638        0       1.00000000       0.00000010       0.00000199      -0.00000079       0.00000355      -0.00000076       0.00000066
H        5.61231038       1.62013336       7.77136685        0       1.00000000      -0.00000044       0.00000194      -0.00000426      -0.00000786       0.00000251       0.00000438
21
Lattice="5.612310241546866 0.0 0.0 0.0 4.860403243099165 0.0 0.0 0.0 24.582432123328676" Properties=species:S:1:pos:R:3:tags:I:1:masses:R:1:momenta:R:3:forces:R:3 KEmax=27.14459056223422 iter=219400 volume=670.5618179858607 ns_energy=-14.088923011606635 last_walked_iter_clone=219240 energy=-14.088923011642786 stress="0.0214800212154765 -7.938450492555397e-09 -1.8619830646518715e-08 -7.938450492555397e-09 0.021539541007142518 1.8609008985305545e-09 -1.8619830646518715e-08 1.8609008985305545e-09 0.010720193410286906" pbc="T T F"
H        1.40307756       0.81006721      10.00000000        3       1.00000000       0.00000000       0.00000000       0.00000000       0.00000000       0.00000000       0.00000000
H        4.20923268       0.81006721      10.00000000        3       1.00000000       0.00000000       0.00000000       0.00000000       0.00000000       0.00000000       0.00000000
H        0.00000000       3.24026883      10.00000000        3       1.00000000       0.00000000       0.00000000       0.00000000       0.00000000       0.00000000       0.00000000
H        2.80615512       3.24026883      10.00000000        3       1.00000000       0.00000000       0.00000000       0.00000000       0.00000000       0.00000000       0.00000000
H        0.00000000       1.62013441      12.29121606        2       1.00000000       0.00000000       0.00000000       0.00000000       0.00000000       0.00000000       0.00000000
H        2.80615512       1.62013441      12.29121606        2       1.00000000       0.00000000       0.00000000       0.00000000       0.00000000       0.00000000       0.00000000
H        1.40307756       4.05033604      12.29121606        2       1.00000000       0.00000000       0.00000000       0.00000000       0.00000000       0.00000000       0.00000000
H        4.20923268       4.05033604      12.29121606        2       1.00000000       0.00000000       0.00000000       0.00000000       0.00000000       0.00000000       0.00000000
H        0.00000000       0.00000000      14.58243212        1       1.00000000       0.00000000       0.00000000       0.00000000       0.00000000       0.00000000       0.00000000
H        2.80615512       0.00000000      14.58243212        1       1.00000000       0.00000000       0.00000000       0.00000000       0.00000000       0.00000000       0.00000000
H        1.40307756       2.43020162      14.58243212        1       1.00000000       0.00000000       0.00000000       0.00000000       0.00000000       0.00000000       0.00000000
H        4.20923268       2.43020162      14.58243212        1       1.00000000       0.00000000       0.00000000       0.00000000       0.00000000       0.00000000       0.00000000
H        0.00732424       3.23594635      16.79604155        0       1.00000000       0.00000063       0.00000063      -0.00000221       0.00000039       0.00000110       0.00000222
H        2.79883154       3.23594475      16.79604204        0       1.00000000      -0.00000077       0.00000034      -0.00000005      -0.00000216      -0.00000211      -0.00000263
H        4.20923524       4.05033592       7.77136699        0       1.00000000      -0.00000034      -0.00000247      -0.00000123       0.00000197      -0.00000306       0.00000431
H        4.20923387       4.05148346      19.01491342        0       1.00000000      -0.00000211       0.00000013       0.00000241       0.00000077       0.00000067       0.00000246
H        2.80615651       1.62013625       7.77136687        0       1.00000000       0.00000275      -0.00000123       0.00000254       0.00000256      -0.00000200       0.00000051
H        1.40307793       0.80073379      16.83184400        0       1.00000000       0.00000008      -0.00000182       0.00000019      -0.00000056      -0.00000194       0.00000146
H        1.40307932       4.05033526       7.77136744        0       1.00000000      -0.00000043      -0.00000112      -0.00000204       0.00000350       0.00000221      -0.00000220
H        4.20923235       0.82634979      16.80075700        0       1.00000000      -0.00000122       0.00000017      -0.00000090       0.00000355      -0.00000076       0.00000066
H        5.61231218       1.62013535       7.77136738        0       1.00000000      -0.00000022      -0.00000106      -0.00000218      -0.00000786       0.00000251       0.00000438
21
Lattice="5.612310241546866 0.0 0.0 0.0 4.860403243099165 0.0 0.0 0.0 24.582432123328676" Properties=species:S:1:pos:R:3:tags:I:1:masses:R:1:momenta:R:3:forces:R:3 KEmax=27.14459056223422 iter=219400 volume=670.5618179858607 ns_energy=-14.088923011604914 last_walked_iter_clone=219071 energy=-14.088923011642786 stress="0.0214800212154765 -7.938450492555397e-09 -1.8619830646518715e-08 -7.938450492555397e-09 0.021539541007142518 1.8609008985305545e-09 -1.8619830646518715e-08 1.8609008985305545e-09 0.010720193410286906" pbc="T T F"
H        1.40307756       0.81006721      10.00000000        3       1.00000000       0.00000000       0.00000000       0.00000000       0.00000000       0.00000000       0.00000000
H        4.20923268       0.81006721      10.00000000        3       1.00000000       0.00000000       0.00000000       0.00000000       0.00000000       0.00000000       0.00000000
H        0.00000000       3.24026883      10.00000000        3       1.00000000       0.00000000       0.00000000       0.00000000       0.00000000       0.00000000       0.00000000
H        2.80615512       3.24026883      10.00000000        3       1.00000000       0.00000000       0.00000000       0.00000000       0.00000000       0.00000000       0.00000000
H        0.00000000       1.62013441      12.29121606        2       1.00000000       0.00000000       0.00000000       0.00000000       0.00000000       0.00000000       0.00000000
H        2.80615512       1.62013441      12.29121606        2       1.00000000       0.00000000       0.00000000       0.00000000       0.00000000       0.00000000       0.00000000
H        1.40307756       4.05033604      12.29121606        2       1.00000000       0.00000000       0.00000000       0.00000000       0.00000000       0.00000000       0.00000000
H        4.20923268       4.05033604      12.29121606        2       1.00000000       0.00000000       0.00000000       0.00000000       0.00000000       0.00000000       0.00000000
H        0.00000000       0.00000000      14.58243212        1       1.00000000       0.00000000       0.00000000       0.00000000       0.00000000       0.00000000       0.00000000
H        2.80615512       0.00000000      14.58243212        1       1.00000000       0.00000000       0.00000000       0.00000000       0.00000000       0.00000000       0.00000000
H        1.40307756       2.43020162      14.58243212        1       1.00000000       0.00000000       0.00000000       0.00000000       0.00000000       0.00000000       0.00000000
H        4.20923268       2.43020162      14.58243212        1       1.00000000       0.00000000       0.00000000       0.00000000       0.00000000       0.00000000       0.00000000
H        0.00732336       3.23594120      16.79603994        0       1.00000000      -0.00000107      -0.00000096      -0.00000141       0.00000039       0.00000110       0.00000222
H        2.79883309       3.23594377      16.79604175        0       1.00000000      -0.00000111      -0.00000079      -0.00000231      -0.00000216      -0.00000211      -0.00000263
H        4.20923317       4.05033578       7.77136553        0       1.00000000       0.00000088       0.00000064       0.00000256       0.00000197      -0.00000306       0.00000431
H        4.20923831       4.05148209      19.01491310        0       1.00000000      -0.00000061      -0.00000262       0.00000037       0.00000077       0.00000067       0.00000246
H        2.80615480       1.62013305       7.77136705        0       1.00000000      -0.00000342       0.00000096      -0.00000094       0.00000256      -0.00000200       0.00000051
H        1.40307625       0.80073407      16.83184703        0       1.00000000       0.00000067      -0.00000059       0.00000029      -0.00000056      -0.00000194       0.00000146
H        1.40307791       4.05033548       7.77136654        0       1.00000000      -0.00000106      -0.00000028       0.00000098       0.00000350       0.00000221      -0.00000220
H        4.20923204       0.82634596      16.80075706        0       1.00000000      -0.00000331       0.00000071       0.00000060       0.00000355      -0.00000076       0.00000066
H        0.00000112       1.62013455       7.77136868        0       1.00000000       0.00000032       0.00000206      -0.00000035      -0.00000786       0.00000251       0.00000438
21
Lattice="5.612310241546866 0.0 0.0 0.0 4.860403243099165 0.0 0.0 0.0 24.582432123328676" Properties=species:S:1:pos:R:3:tags:I:1:masses:R:1:momenta:R:3:forces:R:3 KEmax=27.14459056223422 iter=219400 volume=670.5618179858607 ns_energy=-14.088923011604782 last_walked_iter_clone=219287 energy=-14.088923011642786 stress="0.0214800212154765 -7.938450492555397e-09 -1.8619830646518715e-08 -7.938450492555397e-09 0.021539541007142518 1.8609008985305545e-09 -1.8619830646518715e-08 1.8609008985305545e-09 0.010720193410286906" pbc="T T F"
H        1.40307756       0.81006721      10.00000000        3       1.00000000       0.00000000       0.00000000       0.00000000       0.00000000       0.00000000       0.00000000
H        4.20923268       0.81006721      10.00000000        3       1.00000000       0.00000000       0.00000000       0.00000000       0.00000000       0.00000000       0.00000000
H        0.00000000       3.24026883      10.00000000        3       1.00000000       0.00000000       0.00000000       0.00000000       0.00000000       0.00000000       0.00000000
H        2.80615512       3.24026883      10.00000000        3       1.00000000       0.00000000       0.00000000       0.00000000       0.00000000       0.00000000       0.00000000
H        0.00000000       1.62013441      12.29121606        2       1.00000000       0.00000000       0.00000000       0.00000000       0.00000000       0.00000000       0.00000000
H        2.80615512       1.62013441      12.29121606        2       1.00000000       0.00000000       0.00000000       0.00000000       0.00000000       0.00000000       0.00000000
H        1.40307756       4.05033604      12.29121606        2       1.00000000       0.00000000       0.00000000       0.00000000       0.00000000       0.00000000       0.00000000
H        4.20923268       4.05033604      12.29121606        2       1.00000000       0.00000000       0.00000000       0.00000000       0.00000000       0.00000000       0.00000000
H        0.00000000       0.00000000      14.58243212        1       1.00000000       0.00000000       0.00000000       0.00000000       0.00000000       0.00000000       0.00000000
H        2.80615512       0.00000000      14.58243212        1       1.00000000       0.00000000       0.00000000       0.00000000       0.00000000       0.00000000       0.00000000
H        1.40307756       2.43020162      14.58243212        1       1.00000000       0.00000000       0.00000000       0.00000000       0.00000000       0.00000000       0.00000000
H        4.20923268       2.43020162      14.58243212        1       1.00000000       0.00000000       0.00000000       0.00000000       0.00000000       0.00000000       0.00000000
H        0.00732306       3.23594475      16.79604023        0       1.00000000       0.00000175      -0.00000045      -0.00000153       0.00000039       0.00000110       0.00000222
H        2.79883356       3.23594537      16.79604240        0       1.00000000       0.00000078      -0.00000262      -0.00000085      -0.00000216      -0.00000211      -0.00000263
H        4.20923186       4.05033648       7.77136599        0       1.00000000       0.00000294      -0.00000039       0.00000044       0.00000197      -0.00000306       0.00000431
H        4.20923781       4.05148635      19.01491292        0       1.00000000      -0.00000156       0.00000358      -0.00000187       0.00000077       0.00000067       0.00000246
H        2.80615588       1.62013485       7.77136721        0       1.00000000      -0.00000111       0.00000246      -0.00000076       0.00000256      -0.00000200       0.00000051
H        1.40307754       0.80073645      16.83184427        0       1.00000000      -0.00000053      -0.00000145       0.00000237      -0.00000056      -0.00000194       0.00000146
H        1.40307790       4.05033655       7.77136693        0       1.00000000      -0.00000104      -0.00000147      -0.00000342       0.00000350       0.00000221      -0.00000220
H        4.20923326       0.82634913      16.80075773        0       1.00000000       0.00000163       0.00000099      -0.00000171       0.00000355      -0.00000076       0.00000066
H        5.61231267       1.62013471       7.77136633        0       1.00000000      -0.00000054       0.00000227      -0.00000114      -0.00000786       0.00000251       0.00000438
21
Lattice="5.612310241546866 0.0 0.0 0.0 4.860403243099165 0.0 0.0 0.0 24.582432123328676" Properties=species:S:1:pos:R:3:tags:I:1:masses:R:1:momenta:R:3:forces:R:3 KEmax=27.14459056223422 iter=219400 volume=670.5618179858607 ns_energy=-14.088923011604995 last_walked_iter_clone=218953 energy=-14.088923011642786 stress="0.0214800212154765 -7.938450492555397e-09 -1.8619830646518715e-08 -7.938450492555397e-09 0.021539541007142518 1.8609008985305545e-09 -1.8619830646518715e-08 1.8609008985305545e-09 0.010720193410286906" pbc="T T F"
H        1.40307756       0.81006721      10.00000000        3       1.00000000       0.00000000       0.00000000       0.00000000       0.00000000       0.00000000       0.00000000
H        4.20923268       0.81006721      10.00000000        3       1.00000000       0.00000000       0.00000000       0.00000000       0.00000000       0.00000000       0.00000000
H        0.00000000       3.24026883      10.00000000        3       1.00000000       0.00000000       0.00000000       0.00000000       0.00000000       0.00000000       0.00000000
H        2.80615512       3.24026883      10.00000000        3       1.00000000       0.00000000       0.00000000       0.00000000       0.00000000       0.00000000       0.00000000
H        0.00000000       1.62013441      12.29121606        2       1.00000000       0.00000000       0.00000000       0.00000000       0.00000000       0.00000000       0.00000000
H        2.80615512       1.62013441      12.29121606        2       1.00000000       0.00000000       0.00000000       0.00000000       0.00000000       0.00000000       0.00000000
H        1.40307756       4.05033604      12.29121606        2       1.00000000       0.00000000       0.00000000       0.00000000       0.00000000       0.00000000       0.00000000
H        4.20923268       4.05033604      12.29121606        2       1.00000000       0.00000000       0.00000000       0.00000000       0.00000000       0.00000000       0.00000000
H        0.00000000       0.00000000      14.58243212        1       1.00000000       0.00000000       0.00000000       0.00000000       0.00000000       0.00000000       0.00000000
H        2.80615512       0.00000000      14.58243212        1       1.00000000       0.00000000       0.00000000       0.00000000       0.00000000       0.00000000       0.00000000
H        1.40307756       2.43020162      14.58243212        1       1.00000000       0.00000000       0.00000000       0.00000000       0.00000000       0.00000000       0.00000000
H        4.20923268       2.43020162      14.58243212        1       1.00000000       0.00000000       0.00000000       0.00000000       0.00000000       0.00000000       0.00000000
H        0.00732358       3.23594472      16.79604036        0       1.00000000       0.00000043       0.00000182      -0.00000073       0.00000039       0.00000110       0.00000222
H        2.79883117       3.23594519      16.79603982        0       1.00000000      -0.00000092      -0.00000044      -0.00000216      -0.00000216      -0.00000211      -0.00000263
H        4.20923299       4.05033554       7.77136791        0       1.00000000       0.00000186      -0.00000079       0.00000217       0.00000197      -0.00000306       0.00000431
H        4.20923299       4.05148848      19.01491253        0       1.00000000       0.00000187      -0.00000138      -0.00000065       0.00000077       0.00000067       0.00000246
H        2.80615494       1.62013386       7.77136536        0       1.00000000      -0.00000113       0.00000043       0.00000233       0.00000256      -0.00000200       0.00000051
H        1.40307842       0.80073479      16.83184504        0       1.00000000       0.00000067       0.00000115       0.00000033      -0.00000056      -0.00000194       0.00000146
H        1.40307968       4.05033503       7.77136488        0       1.00000000      -0.00000147       0.00000121       0.00000042       0.00000350       0.00000221      -0.00000220
H        4.20923247       0.82635025      16.80075436        0       1.00000000       0.00000152      -0.00000035      -0.00000116       0.00000355      -0.00000076       0.00000066
H       -0.00000020       1.62013379       7.77136620        0       1.00000000      -0.00000126      -0.00000133      -0.00000155      -0.00000786       0.00000251       0.00000438
21
Lattice="5.612310241546866 0.0 0.0 0.0 4.860403243099165 0.0 0.0 0.0 24.582432123328676" Properties=species:S:1:pos:R:3:tags:I:1:masses:R:1:momenta:R:3:forces:R:3 KEmax=27.14459056223422 iter=219400 volume=670.5618179858607 ns_energy=-14.088923011605214 last_walked_iter_clone=219228 energy=-14.088923011642786 stress="0.0214800212154765 -7.938450492555397e-09 -1.8619830646518715e-08 -7.938450492555397e-09 0.021539541007142518 1.8609008985305545e-09 -1.8619830646518715e-08 1.8609008985305545e-09 0.010720193410286906" pbc="T T F"
H        1.40307756       0.81006721      10.00000000        3       1.00000000       0.00000000       0.00000000       0.00000000       0.00000000       0.00000000       0.00000000
H        4.20923268       0.81006721      10.00000000        3       1.00000000       0.00000000       0.00000000       0.00000000       0.00000000       0.00000000       0.00000000
H        0.00000000       3.24026883      10.00000000        3       1.00000000       0.00000000       0.00000000       0.00000000       0.00000000       0.00000000       0.00000000
H        2.80615512       3.24026883      10.00000000        3       1.00000000       0.00000000       0.00000000       0.00000000       0.00000000       0.00000000       0.00000000
H        0.00000000       1.62013441      12.29121606        2       1.00000000       0.00000000       0.00000000       0.00000000       0.00000000       0.00000000       0.00000000
H        2.80615512       1.62013441      12.29121606        2       1.00000000       0.00000000       0.00000000       0.00000000       0.00000000       0.00000000       0.00000000
H        1.40307756       4.05033604      12.29121606        2       1.00000000       0.00000000       0.00000000       0.00000000       0.00000000       0.00000000       0.00000000
H        4.20923268       4.05033604      12.29121606        2       1.00000000       0.00000000       0.00000000       0.00000000       0.00000000       0.00000000       0.00000000
H        0.00000000       0.00000000      14.58243212        1       1.00000000       0.00000000       0.00000000       0.00000000       0.00000000       0.00000000       0.00000000
H        2.80615512       0.00000000      14.58243212        1       1.00000000       0.00000000       0.00000000       0.00000000       0.00000000       0.00000000       0.00000000
H        1.40307756       2.43020162      14.58243212        1       1.00000000       0.00000000       0.00000000       0.00000000       0.00000000       0.00000000       0.00000000
H        4.20923268       2.43020162      14.58243212        1       1.00000000       0.00000000       0.00000000       0.00000000       0.00000000       0.00000000       0.00000000
H        0.00732491       3.23594454      16.79604174        0       1.00000000      -0.00000027       0.00000111      -0.00000069       0.00000039       0.00000110       0.00000222
H        2.79883329       3.23594444      16.79604080        0       1.00000000       0.00000099       0.00000029      -0.00000014      -0.00000216      -0.00000211      -0.00000263
H        4.20923370       4.05033561       7.77136684        0       1.00000000      -0.00000019      -0.00000444       0.00000219       0.00000197      -0.00000306       0.00000431
H        4.20923617       4.05148469      19.01491329        0       1.00000000       0.00000054       0.00000210      -0.00000193       0.00000077       0.00000067       0.00000246
H        2.80615809       1.62013601       7.77136773        0       1.00000000       0.00000121       0.00000339       0.00000112       0.00000256      -0.00000200       0.00000051
H        1.40307710       0.80073463      16.83184314        0       1.00000000       0.00000122       0.00000102      -0.00000018      -0.00000056      -0.00000194       0.00000146
H        1.40307974       4.05033649       7.77136455        0       1.00000000       0.00000118       0.00000057      -0.00000025       0.00000350       0.00000221      -0.00000220
H        4.20923160       0.82634790      16.80075728        0       1.00000000      -0.00000123       0.00000093       0.00000016       0.00000355      -0.00000076       0.00000066
H        5.61231290       1.62013331       7.77136781        0       1.00000000      -0.00000170       0.00000049      -0.00000137      -0.00000786       0.00000251       0.00000438
21
Lattice="5.612310241546866 0.0 0.0 0.0 4.860403243099165 0.0 0.0 0.0 24.582432123328676" Properties=species:S:1:pos:R:3:tags:I:1:masses:R:1:momenta:R:3:forces:R:3 KEmax=27.14459056223422 iter=219400 volume=670.5618179858607 ns_energy=-14.08892301160514 last_walked_iter_clone=219074 energy=-14.088923011642786 stress="0.0214800212154765 -7.938450492555397e-09 -1.8619830646518715e-08 -7.938450492555397e-09 0.021539541007142518 1.8609008985305545e-09 -1.8619830646518715e-08 1.8609008985305545e-09 0.010720193410286906" pbc="T T F"
H        1.40307756       0.81006721      10.00000000        3       1.00000000       0.00000000       0.00000000       0.00000000       0.00000000       0.00000000       0.00000000
H        4.20923268       0.81006721      10.00000000        3       1.00000000       0.00000000       0.00000000       0.00000000       0.00000000       0.00000000       0.00000000
H        0.00000000       3.24026883      10.00000000        3       1.00000000       0.00000000       0.00000000       0.00000000       0.00000000       0.00000000       0.00000000
H        2.80615512       3.24026883      10.00000000        3       1.00000000       0.00000000       0.00000000       0.00000000       0.00000000       0.00000000       0.00000000
H        0.00000000       1.62013441      12.29121606        2       1.00000000       0.00000000       0.00000000       0.00000000       0.00000000       0.00000000       0.00000000
H        2.80615512       1.62013441      12.29121606        2       1.00000000       0.00000000       0.00000000       0.00000000       0.00000000       0.00000000       0.00000000
H        1.40307756       4.05033604      12.29121606        2       1.00000000       0.00000000       0.00000000       0.00000000       0.00000000       0.00000000       0.00000000
H        4.20923268       4.05033604      12.29121606        2       1.00000000       0.00000000       0.00000000       0.00000000       0.00000000       0.00000000       0.00000000
H        0.00000000       0.00000000      14.58243212        1       1.00000000       0.00000000       0.00000000       0.00000000       0.00000000       0.00000000       0.00000000
H        2.80615512       0.00000000      14.58243212        1       1.00000000       0.00000000       0.00000000       0.00000000       0.00000000       0.00000000       0.00000000
H        1.40307756       2.43020162      14.58243212        1       1.00000000       0.00000000       0.00000000       0.00000000       0.00000000       0.00000000       0.00000000
H        4.20923268       2.43020162      14.58243212        1       1.00000000       0.00000000       0.00000000       0.00000000       0.00000000       0.00000000       0.00000000
H        0.00732356       3.23594576      16.79604245        0       1.00000000      -0.00000143       0.00000003       0.00000059       0.00000039       0.00000110       0.00000222
H        2.79883360       3.23594350      16.79604235        0       1.00000000       0.00000138       0.00000021      -0.00000375      -0.00000216      -0.00000211      -0.00000263
H        4.20923467       4.05033761       7.77136721        0       1.00000000      -0.00000187      -0.00000304       0.00000119       0.00000197      -0.00000306       0.00000431
H        4.20923149       4.05148221      19.01491254        0       1.00000000       0.00000204      -0.00000029       0.00000039       0.00000077       0.00000067       0.00000246
H        2.80615555       1.62013634       7.77136787        0       1.00000000      -0.00000036      -0.00000113      -0.00000051       0.00000256      -0.00000200       0.00000051
H        1.40307706       0.80073669      16.83184529        0       1.00000000       0.00000143      -0.00000043      -0.00000129      -0.00000056      -0.00000194       0.00000146