18
Lattice="5.612310241546866 0.0 0.0 0.0 4.860403243099165 0.0 0.0 0.0 44.58243212332868" Properties=species:S:1:pos:R:3:tags:I:1:masses:R:1:momenta:R:3:forces:R:3 KEmax=23.26679191048647 iter=239999 volume=1216.1236359717223 ns_energy=-11.636651374034743 last_walked_iter_clone=238301 energy=-11.63664632556408 stress="0.022580437149717685 8.97835482535388e-09 -1.1991393306567044e-08 8.97835482535388e-09 0.02269476526526775 1.3621648939466614e-09 -1.1991393306567044e-08 1.3621648939466614e-09 0.012369972711788857" pbc="T T F"
H        1.40307756       0.81006721      20.00000000        3       1.00000000       0.00000000       0.00000000       0.00000000       0.00000000       0.00000000       0.00000000
H        4.20923268       0.81006721      20.00000000        3       1.00000000       0.00000000       0.00000000       0.00000000       0.00000000       0.00000000       0.00000000
H        0.00000000       3.24026883      20.00000000        3       1.00000000       0.00000000       0.00000000       0.00000000       0.00000000       0.00000000       0.00000000
H        2.80615512       3.24026883      20.00000000        3       1.00000000       0.00000000       0.00000000       0.00000000       0.00000000       0.00000000       0.00000000
H        0.00000000       1.62013441      22.29121606        2       1.00000000       0.00000000       0.00000000       0.00000000       0.00000000       0.00000000       0.00000000
H        2.80615512       1.62013441      22.29121606        2       1.00000000       0.00000000       0.00000000       0.00000000       0.00000000       0.00000000       0.00000000
H        1.40307756       4.05033604      22.29121606        2       1.00000000       0.00000000       0.00000000       0.00000000       0.00000000       0.00000000       0.00000000
H        4.20923268       4.05033604      22.29121606        2       1.00000000       0.00000000       0.00000000       0.00000000       0.00000000       0.00000000       0.00000000
H        0.00000000       0.00000000      24.58243212        1       1.00000000       0.00000000       0.00000000       0.00000000       0.00000000       0.00000000       0.00000000
H        2.80615512       0.00000000      24.58243212        1       1.00000000       0.00000000       0.00000000       0.00000000       0.00000000       0.00000000       0.00000000
H        1.40307756       2.43020162      24.58243212        1       1.00000000       0.00000000       0.00000000       0.00000000       0.00000000       0.00000000       0.00000000
H        4.20923268       2.43020162      24.58243212        1       1.00000000       0.00000000       0.00000000       0.00000000       0.00000000       0.00000000       0.00000000
H        5.60237993       1.61998719      26.81113041        0       1.00000000       0.00000016       0.00000012      -0.00000008       0.00000005       0.00000185      -0.00000078
H        2.80615545       0.00000032      17.77172710        0       1.00000000       0.00000007      -0.00000102       0.00000032       0.00140724      -0.00321566      -0.00000176
H        1.41300914       4.05018940      26.81113101        0       1.00000000       0.00000127       0.00000050      -0.00000038       0.00000056      -0.00000210      -0.00000303
H        4.20923352       2.43020207      17.77172726        0       1.00000000      -0.00000011       0.00000046       0.00000069      -0.00254676       0.00316685       0.00000089
H        1.40307823       2.43020170      17.77172720        0       1.00000000       0.00000108       0.00000164       0.00000047       0.00254292       0.00323438      -0.00000363
H        0.00000026       0.00000013      17.77172710        0       1.00000000       0.00000031       0.00000025       0.00000101      -0.00140411      -0.00318525      -0.00000063
18
Lattice="5.612310241546866 0.0 0.0 0.0 4.860403243099165 0.0 0.0 0.0 44.58243212332868" Properties=species:S:1:pos:R:3:tags:I:1:masses:R:1:momenta:R:3:forces:R:3 KEmax=23.26679191048647 iter=239999 volume=1216.1236359717223 ns_energy=-11.636651374034672 last_walked_iter_clone=235326 energy=-11.63664632556408 stress="0.022580437149717685 8.97835482535388e-09 -1.1991393306567044e-08 8.97835482535388e-09 0.02269476526526775 1.3621648939466614e-09 -1.1991393306567044e-08 1.3621648939466614e-09 0.012369972711788857" pbc="T T F"
H        1.40307756       0.81006721      20.00000000        3       1.00000000       0.00000000       0.00000000       0.00000000       0.00000000       0.00000000       0.00000000
H        4.20923268       0.81006721      20.00000000        3       1.00000000       0.00000000       0.00000000       0.00000000       0.00000000       0.00000000       0.00000000
H        0.00000000       3.24026883      20.00000000        3       1.00000000       0.00000000       0.00000000       0.00000000       0.00000000       0.00000000       0.00000000
H        2.80615512       3.24026883      20.00000000        3       1.00000000       0.00000000       0.00000000       0.00000000       0.00000000       0.00000000       0.00000000
H        0.00000000       1.62013441      22.29121606        2       1.00000000       0.00000000       0.00000000       0.00000000       0.00000000       0.00000000       0.00000000
H        2.80615512       1.62013441      22.29121606        2       1.00000000       0.00000000       0.00000000       0.00000000       0.00000000       0.00000000       0.00000000
H        1.40307756       4.05033604      22.29121606        2       1.00000000       0.00000000       0.00000000       0.00000000       0.00000000       0.00000000       0.00000000
H        4.20923268       4.05033604      22.29121606        2       1.00000000       0.00000000       0.00000000       0.00000000       0.00000000       0.00000000       0.00000000
H        0.00000000       0.00000000      24.58243212        1       1.00000000       0.00000000       0.00000000       0.00000000       0.00000000       0.00000000       0.00000000
H        2.80615512       0.00000000      24.58243212        1       1.00000000       0.00000000       0.00000000       0.00000000       0.00000000       0.00000000       0.00000000
H        1.40307756       2.43020162      24.58243212        1       1.00000000       0.00000000       0.00000000       0.00000000       0.00000000       0.00000000       0.00000000
H        4.20923268       2.43020162      24.58243212        1       1.00000000       0.00000000       0.00000000       0.00000000       0.00000000       0.00000000       0.00000000
H        5.60237916       1.61998820      26.81113057        0       1.00000000       0.00000028      -0.00000070       0.00000008       0.00000005       0.00000185      -0.00000078
H        2.80615603       4.86040245      17.77172697        0       1.00000000      -0.00000189      -0.00000017       0.00000033       0.00140724      -0.00321566      -0.00000176
H        1.41300907       4.05018892      26.81113077        0       1.00000000      -0.00000004      -0.00000032      -0.00000053       0.00000056      -0.00000210      -0.00000303
H        4.20923375       2.43020075      17.77172706        0       1.00000000      -0.00000002      -0.00000006      -0.00000031      -0.00254676       0.00316685       0.00000089
H        1.40307879       2.43020112      17.77172684        0       1.00000000      -0.00000003      -0.00000091       0.00000076       0.00254292       0.00323438      -0.00000363
H        0.00000100      -0.00000041      17.77172732        0       1.00000000       0.00000070       0.00000063      -0.00000059      -0.00140411      -0.00318525      -0.00000063
18
Lattice="5.612310241546866 0.0 0.0 0.0 4.860403243099165 0.0 0.0 0.0 44.58243212332868" Properties=species:S:1:pos:R:3:tags:I:1:masses:R:1:momenta:R:3:forces:R:3 KEmax=23.26679191048647 iter=239999 volume=1216.1236359717223 ns_energy=-11.636651374034619 last_walked_iter_clone=236592 energy=-11.63664632556408 stress="0.022580437149717685 8.97835482535388e-09 -1.1991393306567044e-08 8.97835482535388e-09 0.02269476526526775 1.3621648939466614e-09 -1.1991393306567044e-08 1.3621648939466614e-09 0.012369972711788857" pbc="T T F"
H        1.40307756       0.81006721      20.00000000        3       1.00000000       0.00000000       0.00000000       0.00000000       0.00000000       0.00000000       0.00000000
H        4.20923268       0.81006721      20.00000000        3       1.00000000       0.00000000       0.00000000       0.00000000       0.00000000       0.00000000       0.00000000
H        0.00000000       3.24026883      20.00000000        3       1.00000000       0.00000000       0.00000000       0.00000000       0.00000000       0.00000000       0.00000000
H        2.80615512       3.24026883      20.00000000        3       1.00000000       0.00000000       0.00000000       0.00000000       0.00000000       0.00000000       0.00000000
H        0.00000000       1.62013441      22.29121606        2       1.00000000       0.00000000       0.00000000       0.00000000       0.00000000       0.00000000       0.00000000
H        2.80615512       1.62013441      22.29121606        2       1.00000000       0.00000000       0.00000000       0.00000000       0.00000000       0.00000000       0.00000000
H        1.40307756       4.05033604      22.29121606        2       1.00000000       0.00000000       0.00000000       0.00000000       0.00000000       0.00000000       0.00000000
H        4.20923268       4.05033604      22.29121606        2       1.00000000       0.00000000       0.00000000       0.00000000       0.00000000       0.00000000       0.00000000
H        0.00000000       0.00000000      24.58243212        1       1.00000000       0.00000000       0.00000000       0.00000000       0.00000000       0.00000000       0.00000000
H        2.80615512       0.00000000      24.58243212        1       1.00000000       0.00000000       0.00000000       0.00000000       0.00000000       0.00000000       0.00000000
H        1.40307756       2.43020162      24.58243212        1       1.00000000       0.00000000       0.00000000       0.00000000       0.00000000       0.00000000       0.00000000
H        4.20923268       2.43020162      24.58243212        1       1.00000000       0.00000000       0.00000000       0.00000000       0.00000000       0.00000000       0.00000000
H        5.60237993       1.61998719      26.81113041        0       1.00000000       0.00000028      -0.00000025       0.00000067       0.00000005       0.00000185      -0.00000078
H        2.80615545       0.00000032      17.77172710        0       1.00000000       0.00000007      -0.00000051      -0.00000065       0.00140724      -0.00321566      -0.00000176
H        1.41300914       4.05018940      26.81113101        0       1.00000000       0.00000033      -0.00000074      -0.00000060       0.00000056      -0.00000210      -0.00000303
H        4.20923352       2.43020207      17.77172726        0       1.00000000      -0.00000095      -0.00000060       0.00000012      -0.00254676       0.00316685       0.00000089
H        1.40307823       2.43020170      17.77172720        0       1.00000000      -0.00000021       0.00000100      -0.00000110       0.00254292       0.00323438      -0.00000363
H        0.00000026       0.00000013      17.77172710        0       1.00000000       0.00000123       0.00000063       0.00000126      -0.00140411      -0.00318525      -0.00000063
18
Lattice="5.612310241546866 0.0 0.0 0.0 4.860403243099165 0.0 0.0 0.0 44.58243212332868" Properties=species:S:1:pos:R:3:tags:I:1:masses:R:1:momenta:R:3:forces:R:3 KEmax=23.26679191048647 iter=239999 volume=1216.1236359717223 ns_energy=-11.636651374034843 last_walked_iter_clone=237224 energy=-11.63664632556408 stress="0.022580437149717685 8.97835482535388e-09 -1.1991393306567044e-08 8.97835482535388e-09 0.02269476526526775 1.3621648939466614e-09 -1.1991393306567044e-08 1.3621648939466614e-09 0.012369972711788857" pbc="T T F"
H        1.40307756       0.81006721      20.00000000        3       1.00000000       0.00000000       0.00000000       0.00000000       0.00000000       0.00000000       0.00000000
H        4.20923268       0.81006721      20.00000000        3       1.00000000       0.00000000       0.00000000       0.00000000       0.00000000       0.00000000       0.00000000
H        0.00000000       3.24026883      20.00000000        3       1.00000000       0.00000000       0.00000000       0.00000000       0.00000000       0.00000000       0.00000000
H        2.80615512       3.24026883      20.00000000        3       1.00000000       0.00000000       0.00000000       0.00000000       0.00000000       0.00000000       0.00000000
H        0.00000000       1.62013441      22.29121606        2       1.00000000       0.00000000       0.00000000       0.00000000       0.00000000       0.00000000       0.00000000
H        2.80615512       1.62013441      22.29121606        2       1.00000000       0.00000000       0.00000000       0.00000000       0.00000000       0.00000000       0.00000000
H        1.40307756       4.05033604      22.29121606        2       1.00000000       0.00000000       0.00000000       0.00000000       0.00000000       0.00000000       0.00000000
H        4.20923268       4.05033604      22.29121606        2       1.00000000       0.00000000       0.00000000       0.00000000       0.00000000       0.00000000       0.00000000
H        0.00000000       0.00000000      24.58243212        1       1.00000000       0.00000000       0.00000000       0.00000000       0.00000000       0.00000000       0.00000000
H        2.80615512       0.00000000      24.58243212        1       1.00000000       0.00000000       0.00000000       0.00000000       0.00000000       0.00000000       0.00000000
H        1.40307756       2.43020162      24.58243212        1       1.00000000       0.00000000       0.00000000       0.00000000       0.00000000       0.00000000       0.00000000
H        4.20923268       2.43020162      24.58243212        1       1.00000000       0.00000000       0.00000000       0.00000000       0.00000000       0.00000000       0.00000000
H        5.60237963       1.61998823      26.81113081        0       1.00000000       0.00000151       0.00000107       0.00000006       0.00000005       0.00000185      -0.00000078
H        2.80615509       0.00000029      17.77172700        0       1.00000000      -0.00000024       0.00000011      -0.00000036       0.00140724      -0.00321566      -0.00000176
H        1.41300977       4.05018944      26.81113050        0       1.00000000       0.00000056       0.00000108      -0.00000037       0.00000056      -0.00000210      -0.00000303
H        4.20923338       2.43020259      17.77172674        0       1.00000000       0.00000081      -0.00000079       0.00000005      -0.00254676       0.00316685       0.00000089
H        1.40307774       2.43020195      17.77172723        0       1.00000000      -0.00000091       0.00000018       0.00000010       0.00254292       0.00323438      -0.00000363
H       -0.00000004       0.00000048      17.77172707        0       1.00000000      -0.00000047      -0.00000082       0.00000009      -0.00140411      -0.00318525      -0.00000063
18
Lattice="5.612310241546866 0.0 0.0 0.0 4.860403243099165 0.0 0.0 0.0 44.58243212332868" Properties=species:S:1:pos:R:3:tags:I:1:masses:R:1:momenta:R:3:forces:R:3 KEmax=23.26679191048647 iter=239999 volume=1216.1236359717223 ns_energy=-11.636651374034683 last_walked_iter_clone=236431 energy=-11.63664632556408 stress="0.022580437149717685 8.97835482535388e-09 -1.1991393306567044e-08 8.97835482535388e-09 0.02269476526526775 1.3621648939466614e-09 -1.1991393306567044e-08 1.3621648939466614e-09 0.012369972711788857" pbc="T T F"
H        1.40307756       0.81006721      20.00000000        3       1.00000000       0.00000000       0.00000000       0.00000000       0.00000000       0.00000000       0.00000000
H        4.20923268       0.81006721      20.00000000        3       1.00000000       0.00000000       0.00000000       0.00000000       0.00000000       0.00000000       0.00000000
H        0.00000000       3.24026883      20.00000000        3       1.00000000       0.00000000       0.00000000       0.00000000       0.00000000       0.00000000       0.00000000
H        2.80615512       3.24026883      20.00000000        3       1.00000000       0.00000000       0.00000000       0.00000000       0.00000000       0.00000000       0.00000000
H        0.00000000       1.62013441      22.29121606        2       1.00000000       0.00000000       0.00000000       0.00000000       0.00000000       0.00000000       0.00000000
H        2.80615512       1.62013441      22.29121606        2       1.00000000       0.00000000       0.00000000       0.00000000       0.00000000       0.00000000       0.00000000
H        1.40307756       4.05033604      22.29121606        2       1.00000000       0.00000000       0.00000000       0.00000000       0.00000000       0.00000000       0.00000000
H        4.20923268       4.05033604      22.29121606        2       1.00000000       0.00000000       0.00000000       0.00000000       0.00000000       0.00000000       0.00000000
H        0.00000000       0.00000000      24.58243212        1       1.00000000       0.00000000       0.00000000       0.00000000       0.00000000       0.00000000       0.00000000
H        2.80615512       0.00000000      24.58243212        1       1.00000000       0.00000000       0.00000000       0.00000000       0.00000000       0.00000000       0.00000000
H        1.40307756       2.43020162      24.58243212        1       1.00000000       0.00000000       0.00000000       0.00000000       0.00000000       0.00000000       0.00000000
H        4.20923268       2.43020162      24.58243212        1       1.00000000       0.00000000       0.00000000       0.00000000       0.00000000       0.00000000       0.00000000
H        5.60237962       1.61998787      26.81113033        0       1.00000000       0.00000007       0.00000092       0.00000106       0.00000005       0.00000185      -0.00000078
H        2.80615433      -0.00000064      17.77172745        0       1.00000000       0.00000029       0.00000003       0.00000093       0.00140724      -0.00321566      -0.00000176
H        1.41300902       4.05018932      26.81113079        0       1.00000000      -0.00000025       0.00000049       0.00000121       0.00000056      -0.00000210      -0.00000303
H        4.20923204       2.43020062      17.77172666        0       1.00000000      -0.00000003       0.00000044       0.00000154      -0.00254676       0.00316685       0.00000089
H        1.40307707       2.43020102      17.77172759        0       1.00000000      -0.00000031      -0.00000005      -0.00000002       0.00254292       0.00323438      -0.00000363
H       -0.00000078      -0.00000024      17.77172732        0       1.00000000       0.00000019       0.00000048      -0.00000071      -0.00140411      -0.00318525      -0.00000063
18
Lattice="5.612310241546866 0.0 0.0 0.0 4.860403243099165 0.0 0.0 0.0 44.58243212332868" Properties=species:S:1:pos:R:3:tags:I:1:masses:R:1:momenta:R:3:forces:R:3 KEmax=23.26679191048647 iter=239999 volume=1216.1236359717223 ns_energy=-11.636651374034672 last_walked_iter_clone=236472 energy=-11.63664632556408 stress="0.022580437149717685 8.97835482535388e-09 -1.1991393306567044e-08 8.97835482535388e-09 0.02269476526526775 1.3621648939466614e-09 -1.1991393306567044e-08 1.3621648939466614e-09 0.012369972711788857" pbc="T T F"
H        1.40307756       0.81006721      20.00000000        3       1.00000000       0.00000000       0.00000000       0.00000000       0.00000000       0.00000000       0.00000000
H        4.20923268       0.81006721      20.00000000        3       1.00000000       0.00000000       0.00000000       0.00000000       0.00000000       0.00000000       0.00000000
H        0.00000000       3.24026883      20.00000000        3       1.00000000       0.00000000       0.00000000       0.00000000       0.00000000       0.00000000       0.00000000
H        2.80615512       3.24026883      20.00000000        3       1.00000000       0.00000000       0.00000000       0.00000000       0.00000000       0.00000000       0.00000000
H        0.00000000       1.62013441      22.29121606        2       1.00000000       0.00000000       0.00000000       0.00000000       0.00000000       0.00000000       0.00000000
H        2.80615512       1.62013441      22.29121606        2       1.00000000       0.00000000       0.00000000       0.00000000       0.00000000       0.00000000       0.00000000
H        1.40307756       4.05033604      22.29121606        2       1.00000000       0.00000000       0.00000000       0.00000000       0.00000000       0.00000000       0.00000000
H        4.20923268       4.05033604      22.29121606        2       1.00000000       0.00000000       0.00000000       0.00000000       0.00000000       0.00000000       0.00000000
H        0.00000000       0.00000000      24.58243212        1       1.00000000       0.00000000       0.00000000       0.00000000       0.00000000       0.00000000       0.00000000
H        2.80615512       0.00000000      24.58243212        1       1.00000000       0.00000000       0.00000000       0.00000000       0.00000000       0.00000000       0.00000000
H        1.40307756       2.43020162      24.58243212        1       1.00000000       0.00000000       0.00000000       0.00000000       0.00000000       0.00000000       0.00000000
H        4.20923268       2.43020162      24.58243212        1       1.00000000       0.00000000       0.00000000       0.00000000       0.00000000       0.00000000       0.00000000
H        5.60237919       1.61998759      26.81113079        0       1.00000000      -0.00000034       0.00000028      -0.00000118       0.00000005       0.00000185      -0.00000078
H        2.80615493       4.86040256      17.77172741        0       1.00000000       0.00000053       0.00000155       0.00000046       0.00140724      -0.00321566      -0.00000176
H        1.41300864       4.05018905      26.81113107        0       1.00000000      -0.00000015      -0.00000023       0.00000052       0.00000056      -0.00000210      -0.00000303
H        4.20923274       2.43020144      17.77172694        0       1.00000000       0.00000047       0.00000030       0.00000030      -0.00254676       0.00316685       0.00000089
H        1.40307748       2.43020146      17.77172742        0       1.00000000      -0.00000153       0.00000023       0.00000057       0.00254292       0.00323438      -0.00000363
H        0.00000026       0.00000008      17.77172711        0       1.00000000      -0.00000104      -0.00000108      -0.00000051      -0.00140411      -0.00318525      -0.00000063
18
Lattice="5.612310241546866 0.0 0.0 0.0 4.860403243099165 0.0 0.0 0.0 44.58243212332868" Properties=species:S:1:pos:R:3:tags:I:1:masses:R:1:momenta:R:3:forces:R:3 KEmax=23.26679191048647 iter=239999 volume=1216.1236359717223 ns_energy=-11.636651374034706 last_walked_iter_clone=231952 energy=-11.63664632556408 stress="0.022580437149717685 8.97835482535388e-09 -1.1991393306567044e-08 8.97835482535388e-09 0.02269476526526775 1.3621648939466614e-09 -1.1991393306567044e-08 1.3621648939466614e-09 0.012369972711788857" pbc="T T F"
H        1.40307756       0.81006721      20.00000000        3       1.00000000       0.00000000       0.00000000       0.00000000       0.00000000       0.00000000       0.00000000
H        4.20923268       0.81006721      20.00000000        3       1.00000000       0.00000000       0.00000000       0.00000000       0.00000000       0.00000000       0.00000000
H        0.00000000       3.24026883      20.00000000        3       1.00000000       0.00000000       0.00000000       0.00000000       0.00000000       0.00000000       0.00000000
H        2.80615512       3.24026883      20.00000000        3       1.00000000       0.00000000       0.00000000       0.00000000       0.00000000       0.00000000       0.00000000
H        0.00000000       1.62013441      22.29121606        2       1.00000000       0.00000000       0.00000000       0.00000000       0.00000000       0.00000000       0.00000000
H        2.80615512       1.62013441      22.29121606        2       1.00000000       0.00000000       0.00000000       0.00000000       0.00000000       0.00000000       0.00000000
H        1.40307756       4.05033604      22.29121606        2       1.00000000       0.00000000       0.00000000       0.00000000       0.00000000       0.00000000       0.00000000
H        4.20923268       4.05033604      22.29121606        2       1.00000000       0.00000000       0.00000000       0.00000000       0.00000000       0.00000000       0.00000000
H        0.00000000       0.00000000      24.58243212        1       1.00000000       0.00000000       0.00000000       0.00000000       0.00000000       0.00000000       0.00000000
H        2.80615512       0.00000000      24.58243212        1       1.00000000       0.00000000       0.00000000       0.00000000       0.00000000       0.00000000       0.00000000
H        1.40307756       2.43020162      24.58243212        1       1.00000000       0.00000000       0.00000000       0.00000000       0.00000000       0.00000000       0.00000000
H        4.20923268       2.43020162      24.58243212        1       1.00000000       0.00000000       0.00000000       0.00000000       0.00000000       0.00000000       0.00000000
H        5.60237989       1.61998807      26.81113076        0       1.00000000       0.00000105      -0.00000051      -0.00000077       0.00000005       0.00000185      -0.00000078
H        2.80615516       0.00000063      17.77172701        0       1.00000000      -0.00000029      -0.00000129      -0.00000059       0.00140724      -0.00321566      -0.00000176
H        1.41300959       4.05018947      26.81113055        0       1.00000000      -0.00000075       0.00000032       0.00000045       0.00000056      -0.00000210      -0.00000303
H        4.20923302       2.43020236      17.77172672        0       1.00000000      -0.00000048       0.00000055       0.00000031      -0.00254676       0.00316685       0.00000089
H        1.40307787       2.43020210      17.77172724        0       1.00000000      -0.00000158       0.00000045      -0.00000066       0.00254292       0.00323438      -0.00000363
H       -0.00000033       0.00000057      17.77172695        0       1.00000000       0.00000043      -0.00000052      -0.00000103      -0.00140411      -0.00318525      -0.00000063
18
Lattice="5.612310241546866 0.0 0.0 0.0 4.860403243099165 0.0 0.0 0.0 44.58243212332868" Properties=species:S:1:pos:R:3:tags:I:1:masses:R:1:momenta:R:3:forces:R:3 KEmax=23.26679191048647 iter=239999 volume=1216.1236359717223 ns_energy=-11.63665137403476 last_walked_iter_clone=237453 energy=-11.63664632556408 stress="0.022580437149717685 8.97835482535388e-09 -1.1991393306567044e-08 8.97835482535388e-09 0.02269476526526775 1.3621648939466614e-09 -1.1991393306567044e-08 1.3621648939466614e-09 0.012369972711788857" pbc="T T F"
H        1.40307756       0.81006721      20.00000000        3       1.00000000       0.00000000       0.00000000       0.00000000       0.00000000       0.00000000       0.00000000
H        4.20923268       0.81006721      20.00000000        3       1.00000000       0.00000000       0.00000000       0.00000000       0.00000000       0.00000000       0.00000000
H        0.00000000       3.24026883      20.00000000        3       1.00000000       0.00000000       0.00000000       0.00000000       0.00000000       0.00000000       0.00000000
H        2.80615512       3.24026883      20.00000000        3       1.00000000       0.00000000       0.00000000       0.00000000       0.00000000       0.00000000       0.00000000
H        0.00000000       1.62013441      22.29121606        2       1.00000000       0.00000000       0.00000000       0.00000000       0.00000000       0.00000000       0.00000000
H        2.80615512       1.62013441      22.29121606        2       1.00000000       0.00000000       0.00000000       0.00000000       0.00000000       0.00000000       0.00000000
H        1.40307756       4.05033604      22.29121606        2       1.00000000       0.00000000       0.00000000       0.00000000       0.00000000       0.00000000       0.00000000
H        4.20923268       4.05033604      22.29121606        2       1.00000000       0.00000000       0.00000000       0.00000000       0.00000000       0.00000000       0.00000000
H        0.00000000       0.00000000      24.58243212        1       1.00000000       0.00000000       0.00000000       0.00000000       0.00000000       0.00000000       0.00000000
H        2.80615512       0.00000000      24.58243212        1       1.00000000       0.00000000       0.00000000       0.00000000       0.00000000       0.00000000       0.00000000
H        1.40307756       2.43020162      24.58243212        1       1.00000000       0.00000000       0.00000000       0.00000000       0.00000000       0.00000000       0.00000000
H        4.20923268       2.43020162      24.58243212        1       1.00000000       0.00000000       0.00000000       0.00000000       0.00000000       0.00000000       0.00000000
H        5.60237987       1.61998793      26.81113049        0       1.00000000       0.00000014      -0.00000101      -0.00000044       0.00000005       0.00000185      -0.00000078
H        2.80615470       0.00000015      17.77172718        0       1.00000000       0.00000022      -0.00000005       0.00000020       0.00140724      -0.00321566      -0.00000176
H        1.41300802       4.05018984      26.81113065        0       1.00000000      -0.00000002       0.00000198       0.00000057       0.00000056      -0.00000210      -0.00000303