18
Lattice="5.612310241546866 0.0 0.0 0.0 4.860403243099165 0.0 0.0 0.0 44.58243212332868" Properties=species:S:1:pos:R:3:tags:I:1:masses:R:1:momenta:R:3:forces:R:3 KEmax=23.26679191048647 iter=230828 volume=1216.1236359717223 ns_energy=-11.636651374034003 last_walked_iter_clone=227731 energy=-11.63665137403574 stress="0.022580600062913916 6.9141418758977565e-09 5.1391071113118446e-09 6.9141418758977565e-09 0.02269495755867776 -3.463833449501949e-09 5.1391071113118446e-09 -3.463833449501949e-09 0.012369956252794148" pbc="T T F"
H        1.40307756       0.81006721      20.00000000        3       1.00000000       0.00000000       0.00000000       0.00000000       0.00000000       0.00000000       0.00000000
H        4.20923268       0.81006721      20.00000000        3       1.00000000       0.00000000       0.00000000       0.00000000       0.00000000       0.00000000       0.00000000
H        0.00000000       3.24026883      20.00000000        3       1.00000000       0.00000000       0.00000000       0.00000000       0.00000000       0.00000000       0.00000000
H        2.80615512       3.24026883      20.00000000        3       1.00000000       0.00000000       0.00000000       0.00000000       0.00000000       0.00000000       0.00000000
H        0.00000000       1.62013441      22.29121606        2       1.00000000       0.00000000       0.00000000       0.00000000       0.00000000       0.00000000       0.00000000
H        2.80615512       1.62013441      22.29121606        2       1.00000000       0.00000000       0.00000000       0.00000000       0.00000000       0.00000000       0.00000000
H        1.40307756       4.05033604      22.29121606        2       1.00000000       0.00000000       0.00000000       0.00000000       0.00000000       0.00000000       0.00000000
H        4.20923268       4.05033604      22.29121606        2       1.00000000       0.00000000       0.00000000       0.00000000       0.00000000       0.00000000       0.00000000
H        0.00000000       0.00000000      24.58243212        1       1.00000000       0.00000000       0.00000000       0.00000000       0.00000000       0.00000000       0.00000000
H        2.80615512       0.00000000      24.58243212        1       1.00000000       0.00000000       0.00000000       0.00000000       0.00000000       0.00000000       0.00000000
H        1.40307756       2.43020162      24.58243212        1       1.00000000       0.00000000       0.00000000       0.00000000       0.00000000       0.00000000       0.00000000
H        4.20923268       2.43020162      24.58243212        1       1.00000000       0.00000000       0.00000000       0.00000000       0.00000000       0.00000000       0.00000000
H        5.60237883       1.61998690      26.81113000        0       1.00000000       0.00000092      -0.00000014      -0.00000014      -0.00000016      -0.00000106      -0.00000047
H        2.80615491      -0.00000022      17.77172714        0       1.00000000       0.00000060      -0.00000011      -0.00000044       0.00000002       0.00000094      -0.00000011
H        1.41300894       4.05018815      26.81113066        0       1.00000000      -0.00000006       0.00000031       0.00000060       0.00000119       0.00000103       0.00000045
H        4.20923269       2.43020098      17.77172648        0       1.00000000       0.00000042       0.00000061       0.00000097       0.00000059      -0.00000350      -0.00000109
H        1.40307759       2.43020101      17.77172751        0       1.00000000       0.00000088       0.00000127      -0.00000101      -0.00000162       0.00000104      -0.00000124
H        0.00000046      -0.00000054      17.77172760        0       1.00000000      -0.00000080      -0.00000069      -0.00000084       0.00000262       0.00000152      -0.00000081
18
Lattice="5.612310241546866 0.0 0.0 0.0 4.860403243099165 0.0 0.0 0.0 44.58243212332868" Properties=species:S:1:pos:R:3:tags:I:1:masses:R:1:momenta:R:3:forces:R:3 KEmax=23.26679191048647 iter=230828 volume=1216.1236359717223 ns_energy=-11.636651374034072 last_walked_iter_clone=227080 energy=-11.63665137403574 stress="0.022580600062913916 6.9141418758977565e-09 5.1391071113118446e-09 6.9141418758977565e-09 0.02269495755867776 -3.463833449501949e-09 5.1391071113118446e-09 -3.463833449501949e-09 0.012369956252794148" pbc="T T F"
H        1.40307756       0.81006721      20.00000000        3       1.00000000       0.00000000       0.00000000       0.00000000       0.00000000       0.00000000       0.00000000
H        4.20923268       0.81006721      20.00000000        3       1.00000000       0.00000000       0.00000000       0.00000000       0.00000000       0.00000000       0.00000000
H        0.00000000       3.24026883      20.00000000        3       1.00000000       0.00000000       0.00000000       0.00000000       0.00000000       0.00000000       0.00000000
H        2.80615512       3.24026883      20.00000000        3       1.00000000       0.00000000       0.00000000       0.00000000       0.00000000       0.00000000       0.00000000
H        0.00000000       1.62013441      22.29121606        2       1.00000000       0.00000000       0.00000000       0.00000000       0.00000000       0.00000000       0.00000000
H        2.80615512       1.62013441      22.29121606        2       1.00000000       0.00000000       0.00000000       0.00000000       0.00000000       0.00000000       0.00000000
H        1.40307756       4.05033604      22.29121606        2       1.00000000       0.00000000       0.00000000       0.00000000       0.00000000       0.00000000       0.00000000
H        4.20923268       4.05033604      22.29121606        2       1.00000000       0.00000000       0.00000000       0.00000000       0.00000000       0.00000000       0.00000000
H        0.00000000       0.00000000      24.58243212        1       1.00000000       0.00000000       0.00000000       0.00000000       0.00000000       0.00000000       0.00000000
H        2.80615512       0.00000000      24.58243212        1       1.00000000       0.00000000       0.00000000       0.00000000       0.00000000       0.00000000       0.00000000
H        1.40307756       2.43020162      24.58243212        1       1.00000000       0.00000000       0.00000000       0.00000000       0.00000000       0.00000000       0.00000000
H        4.20923268       2.43020162      24.58243212        1       1.00000000       0.00000000       0.00000000       0.00000000       0.00000000       0.00000000       0.00000000
H        5.60237892       1.61998779      26.81113033        0       1.00000000      -0.00000028      -0.00000021      -0.00000083      -0.00000016      -0.00000106      -0.00000047
H        2.80615549      -0.00000039      17.77172709        0       1.00000000      -0.00000063       0.00000020       0.00000207       0.00000002       0.00000094      -0.00000011
H        1.41300755       4.05018895      26.81112999        0       1.00000000       0.00000045      -0.00000042       0.00000106       0.00000119       0.00000103       0.00000045
H        4.20923271       2.43020150      17.77172686        0       1.00000000      -0.00000092      -0.00000087      -0.00000053       0.00000059      -0.00000350      -0.00000109
H        1.40307779       2.43020133      17.77172692        0       1.00000000       0.00000083      -0.00000016       0.00000001      -0.00000162       0.00000104      -0.00000124
H       -0.00000021      -0.00000003      17.77172717        0       1.00000000      -0.00000068       0.00000077      -0.00000058       0.00000262       0.00000152      -0.00000081
18
Lattice="5.612310241546866 0.0 0.0 0.0 4.860403243099165 0.0 0.0 0.0 44.58243212332868" Properties=species:S:1:pos:R:3:tags:I:1:masses:R:1:momenta:R:3:forces:R:3 KEmax=23.26679191048647 iter=230828 volume=1216.1236359717223 ns_energy=-11.636651374034182 last_walked_iter_clone=229537 energy=-11.63665137403574 stress="0.022580600062913916 6.9141418758977565e-09 5.1391071113118446e-09 6.9141418758977565e-09 0.02269495755867776 -3.463833449501949e-09 5.1391071113118446e-09 -3.463833449501949e-09 0.012369956252794148" pbc="T T F"
H        1.40307756       0.81006721      20.00000000        3       1.00000000       0.00000000       0.00000000       0.00000000       0.00000000       0.00000000       0.00000000
H        4.20923268       0.81006721      20.00000000        3       1.00000000       0.00000000       0.00000000       0.00000000       0.00000000       0.00000000       0.00000000
H        0.00000000       3.24026883      20.00000000        3       1.00000000       0.00000000       0.00000000       0.00000000       0.00000000       0.00000000       0.00000000
H        2.80615512       3.24026883      20.00000000        3       1.00000000       0.00000000       0.00000000       0.00000000       0.00000000       0.00000000       0.00000000
H        0.00000000       1.62013441      22.29121606        2       1.00000000       0.00000000       0.00000000       0.00000000       0.00000000       0.00000000       0.00000000
H        2.80615512       1.62013441      22.29121606        2       1.00000000       0.00000000       0.00000000       0.00000000       0.00000000       0.00000000       0.00000000
H        1.40307756       4.05033604      22.29121606        2       1.00000000       0.00000000       0.00000000       0.00000000       0.00000000       0.00000000       0.00000000
H        4.20923268       4.05033604      22.29121606        2       1.00000000       0.00000000       0.00000000       0.00000000       0.00000000       0.00000000       0.00000000
H        0.00000000       0.00000000      24.58243212        1       1.00000000       0.00000000       0.00000000       0.00000000       0.00000000       0.00000000       0.00000000
H        2.80615512       0.00000000      24.58243212        1       1.00000000       0.00000000       0.00000000       0.00000000       0.00000000       0.00000000       0.00000000
H        1.40307756       2.43020162      24.58243212        1       1.00000000       0.00000000       0.00000000       0.00000000       0.00000000       0.00000000       0.00000000
H        4.20923268       2.43020162      24.58243212        1       1.00000000       0.00000000       0.00000000       0.00000000       0.00000000       0.00000000       0.00000000
H        5.60237898       1.61998835      26.81113057        0       1.00000000      -0.00000028      -0.00000035       0.00000007      -0.00000016      -0.00000106      -0.00000047
H        2.80615602      -0.00000077      17.77172698        0       1.00000000      -0.00000010      -0.00000194      -0.00000036       0.00000002       0.00000094      -0.00000011
H        1.41300916       4.05018874      26.81113078        0       1.00000000       0.00000133       0.00000030      -0.00000022       0.00000119       0.00000103       0.00000045
H        4.20923373       2.43020071      17.77172708        0       1.00000000       0.00000020      -0.00000068      -0.00000027       0.00000059      -0.00000350      -0.00000109
H        1.40307873       2.43020091      17.77172686        0       1.00000000      -0.00000055       0.00000013       0.00000033      -0.00000162       0.00000104      -0.00000124
H        5.61231115      -0.00000033      17.77172735        0       1.00000000       0.00000046      -0.00000009       0.00000029       0.00000262       0.00000152      -0.00000081
18
Lattice="5.612310241546866 0.0 0.0 0.0 4.860403243099165 0.0 0.0 0.0 44.58243212332868" Properties=species:S:1:pos:R:3:tags:I:1:masses:R:1:momenta:R:3:forces:R:3 KEmax=23.26679191048647 iter=230828 volume=1216.1236359717223 ns_energy=-11.636651374034066 last_walked_iter_clone=229594 energy=-11.63665137403574 stress="0.022580600062913916 6.9141418758977565e-09 5.1391071113118446e-09 6.9141418758977565e-09 0.02269495755867776 -3.463833449501949e-09 5.1391071113118446e-09 -3.463833449501949e-09 0.012369956252794148" pbc="T T F"
H        1.40307756       0.81006721      20.00000000        3       1.00000000       0.00000000       0.00000000       0.00000000       0.00000000       0.00000000       0.00000000
H        4.20923268       0.81006721      20.00000000        3       1.00000000       0.00000000       0.00000000       0.00000000       0.00000000       0.00000000       0.00000000
H        0.00000000       3.24026883      20.00000000        3       1.00000000       0.00000000       0.00000000       0.00000000       0.00000000       0.00000000       0.00000000
H        2.80615512       3.24026883      20.00000000        3       1.00000000       0.00000000       0.00000000       0.00000000       0.00000000       0.00000000       0.00000000
H        0.00000000       1.62013441      22.29121606        2       1.00000000       0.00000000       0.00000000       0.00000000       0.00000000       0.00000000       0.00000000
H        2.80615512       1.62013441      22.29121606        2       1.00000000       0.00000000       0.00000000       0.00000000       0.00000000       0.00000000       0.00000000
H        1.40307756       4.05033604      22.29121606        2       1.00000000       0.00000000       0.00000000       0.00000000       0.00000000       0.00000000       0.00000000
H        4.20923268       4.05033604      22.29121606        2       1.00000000       0.00000000       0.00000000       0.00000000       0.00000000       0.00000000       0.00000000
H        0.00000000       0.00000000      24.58243212        1       1.00000000       0.00000000       0.00000000       0.00000000       0.00000000       0.00000000       0.00000000
H        2.80615512       0.00000000      24.58243212        1       1.00000000       0.00000000       0.00000000       0.00000000       0.00000000       0.00000000       0.00000000
H        1.40307756       2.43020162      24.58243212        1       1.00000000       0.00000000       0.00000000       0.00000000       0.00000000       0.00000000       0.00000000
H        4.20923268       2.43020162      24.58243212        1       1.00000000       0.00000000       0.00000000       0.00000000       0.00000000       0.00000000       0.00000000
H        5.60237916       1.61998820      26.81113057        0       1.00000000       0.00000032      -0.00000059       0.00000008      -0.00000016      -0.00000106      -0.00000047
H        2.80615603       4.86040245      17.77172697        0       1.00000000      -0.00000060      -0.00000001      -0.00000008       0.00000002       0.00000094      -0.00000011
H        1.41300907       4.05018892      26.81113077        0       1.00000000      -0.00000013       0.00000033      -0.00000073       0.00000119       0.00000103       0.00000045
H        4.20923375       2.43020075      17.77172706        0       1.00000000       0.00000043      -0.00000085      -0.00000073       0.00000059      -0.00000350      -0.00000109
H        1.40307879       2.43020112      17.77172684        0       1.00000000       0.00000031      -0.00000012       0.00000119      -0.00000162       0.00000104      -0.00000124
H        0.00000100      -0.00000041      17.77172732        0       1.00000000       0.00000082       0.00000151       0.00000128       0.00000262       0.00000152      -0.00000081
18
Lattice="5.612310241546866 0.0 0.0 0.0 4.860403243099165 0.0 0.0 0.0 44.58243212332868" Properties=species:S:1:pos:R:3:tags:I:1:masses:R:1:momenta:R:3:forces:R:3 KEmax=23.26679191048647 iter=230828 volume=1216.1236359717223 ns_energy=-11.636651374034054 last_walked_iter_clone=228453 energy=-11.63665137403574 stress="0.022580600062913916 6.9141418758977565e-09 5.1391071113118446e-09 6.9141418758977565e-09 0.02269495755867776 -3.463833449501949e-09 5.1391071113118446e-09 -3.463833449501949e-09 0.012369956252794148" pbc="T T F"
H        1.40307756       0.81006721      20.00000000        3       1.00000000       0.00000000       0.00000000       0.00000000       0.00000000       0.00000000       0.00000000
H        4.20923268       0.81006721      20.00000000        3       1.00000000       0.00000000       0.00000000       0.00000000       0.00000000       0.00000000       0.00000000
H        0.00000000       3.24026883      20.00000000        3       1.00000000       0.00000000       0.00000000       0.00000000       0.00000000       0.00000000       0.00000000
H        2.80615512       3.24026883      20.00000000        3       1.00000000       0.00000000       0.00000000       0.00000000       0.00000000       0.00000000       0.00000000
H        0.00000000       1.62013441      22.29121606        2       1.00000000       0.00000000       0.00000000       0.00000000       0.00000000       0.00000000       0.00000000
H        2.80615512       1.62013441      22.29121606        2       1.00000000       0.00000000       0.00000000       0.00000000       0.00000000       0.00000000       0.00000000
H        1.40307756       4.05033604      22.29121606        2       1.00000000       0.00000000       0.00000000       0.00000000       0.00000000       0.00000000       0.00000000
H        4.20923268       4.05033604      22.29121606        2       1.00000000       0.00000000       0.00000000       0.00000000       0.00000000       0.00000000       0.00000000
H        0.00000000       0.00000000      24.58243212        1       1.00000000       0.00000000       0.00000000       0.00000000       0.00000000       0.00000000       0.00000000
H        2.80615512       0.00000000      24.58243212        1       1.00000000       0.00000000       0.00000000       0.00000000       0.00000000       0.00000000       0.00000000
H        1.40307756       2.43020162      24.58243212        1       1.00000000       0.00000000       0.00000000       0.00000000       0.00000000       0.00000000       0.00000000
H        4.20923268       2.43020162      24.58243212        1       1.00000000       0.00000000       0.00000000       0.00000000       0.00000000       0.00000000       0.00000000
H        5.60237932       1.61998806      26.81113038        0       1.00000000       0.00000024       0.00000132      -0.00000103      -0.00000016      -0.00000106      -0.00000047
H        2.80615502       0.00000010      17.77172731        0       1.00000000      -0.00000085      -0.00000018       0.00000074       0.00000002       0.00000094      -0.00000011
H        1.41300950       4.05019002      26.81113088        0       1.00000000      -0.00000065       0.00000017      -0.00000077       0.00000119       0.00000103       0.00000045
H        4.20923312       2.43020202      17.77172721        0       1.00000000      -0.00000002      -0.00000009       0.00000090       0.00000059      -0.00000350      -0.00000109
H        1.40307800       2.43020233      17.77172736        0       1.00000000       0.00000053      -0.00000041      -0.00000079      -0.00000162       0.00000104      -0.00000124
H        5.61231049       4.86040386      17.77172722        0       1.00000000      -0.00000028       0.00000133       0.00000124       0.00000262       0.00000152      -0.00000081
18
Lattice="5.612310241546866 0.0 0.0 0.0 4.860403243099165 0.0 0.0 0.0 44.58243212332868" Properties=species:S:1:pos:R:3:tags:I:1:masses:R:1:momenta:R:3:forces:R:3 KEmax=23.26679191048647 iter=230828 volume=1216.1236359717223 ns_energy=-11.636651374034015 last_walked_iter_clone=230020 energy=-11.63665137403574 stress="0.022580600062913916 6.9141418758977565e-09 5.1391071113118446e-09 6.9141418758977565e-09 0.02269495755867776 -3.463833449501949e-09 5.1391071113118446e-09 -3.463833449501949e-09 0.012369956252794148" pbc="T T F"
H        1.40307756       0.81006721      20.00000000        3       1.00000000       0.00000000       0.00000000       0.00000000       0.00000000       0.00000000       0.00000000
H        4.20923268       0.81006721      20.00000000        3       1.00000000       0.00000000       0.00000000       0.00000000       0.00000000       0.00000000       0.00000000
H        0.00000000       3.24026883      20.00000000        3       1.00000000       0.00000000       0.00000000       0.00000000       0.00000000       0.00000000       0.00000000
H        2.80615512       3.24026883      20.00000000        3       1.00000000       0.00000000       0.00000000       0.00000000       0.00000000       0.00000000       0.00000000
H        0.00000000       1.62013441      22.29121606        2       1.00000000       0.00000000       0.00000000       0.00000000       0.00000000       0.00000000       0.00000000
H        2.80615512       1.62013441      22.29121606        2       1.00000000       0.00000000       0.00000000       0.00000000       0.00000000       0.00000000       0.00000000
H        1.40307756       4.05033604      22.29121606        2       1.00000000       0.00000000       0.00000000       0.00000000       0.00000000       0.00000000       0.00000000
H        4.20923268       4.05033604      22.29121606        2       1.00000000       0.00000000       0.00000000       0.00000000       0.00000000       0.00000000       0.00000000
H        0.00000000       0.00000000      24.58243212        1       1.00000000       0.00000000       0.00000000       0.00000000       0.00000000       0.00000000       0.00000000
H        2.80615512       0.00000000      24.58243212        1       1.00000000       0.00000000       0.00000000       0.00000000       0.00000000       0.00000000       0.00000000
H        1.40307756       2.43020162      24.58243212        1       1.00000000       0.00000000       0.00000000       0.00000000       0.00000000       0.00000000       0.00000000
H        4.20923268       2.43020162      24.58243212        1       1.00000000       0.00000000       0.00000000       0.00000000       0.00000000       0.00000000       0.00000000
H        5.60237972       1.61998833      26.81113075        0       1.00000000       0.00000013       0.00000047      -0.00000026      -0.00000016      -0.00000106      -0.00000047
H        2.80615423       0.00000065      17.77172645        0       1.00000000       0.00000031       0.00000036       0.00000034       0.00000002       0.00000094      -0.00000011
H        1.41300914       4.05018950      26.81113074        0       1.00000000      -0.00000130      -0.00000082      -0.00000047       0.00000119       0.00000103       0.00000045
H        4.20923274       2.43020226      17.77172709        0       1.00000000      -0.00000074      -0.00000068       0.00000033       0.00000059      -0.00000350      -0.00000109
H        1.40307733       2.43020257      17.77172682        0       1.00000000       0.00000055       0.00000070      -0.00000047      -0.00000162       0.00000104      -0.00000124
H        5.61230967       0.00000081      17.77172711        0       1.00000000      -0.00000188       0.00000062       0.00000040       0.00000262       0.00000152      -0.00000081
18
Lattice="5.612310241546866 0.0 0.0 0.0 4.860403243099165 0.0 0.0 0.0 44.58243212332868" Properties=species:S:1:pos:R:3:tags:I:1:masses:R:1:momenta:R:3:forces:R:3 KEmax=23.26679191048647 iter=230828 volume=1216.1236359717223 ns_energy=-11.636651374034104 last_walked_iter_clone=228424 energy=-11.63665137403574 stress="0.022580600062913916 6.9141418758977565e-09 5.1391071113118446e-09 6.9141418758977565e-09 0.02269495755867776 -3.463833449501949e-09 5.1391071113118446e-09 -3.463833449501949e-09 0.012369956252794148" pbc="T T F"
H        1.40307756       0.81006721      20.00000000        3       1.00000000       0.00000000       0.00000000       0.00000000       0.00000000       0.00000000       0.00000000
H        4.20923268       0.81006721      20.00000000        3       1.00000000       0.00000000       0.00000000       0.00000000       0.00000000       0.00000000       0.00000000
H        0.00000000       3.24026883      20.00000000        3       1.00000000       0.00000000       0.00000000       0.00000000       0.00000000       0.00000000       0.00000000
H        2.80615512       3.24026883      20.00000000        3       1.00000000       0.00000000       0.00000000       0.00000000       0.00000000       0.00000000       0.00000000
H        0.00000000       1.62013441      22.29121606        2       1.00000000       0.00000000       0.00000000       0.00000000       0.00000000       0.00000000       0.00000000
H        2.80615512       1.62013441      22.29121606        2       1.00000000       0.00000000       0.00000000       0.00000000       0.00000000       0.00000000       0.00000000
H        1.40307756       4.05033604      22.29121606        2       1.00000000       0.00000000       0.00000000       0.00000000       0.00000000       0.00000000       0.00000000
H        4.20923268       4.05033604      22.29121606        2       1.00000000       0.00000000       0.00000000       0.00000000       0.00000000       0.00000000       0.00000000
H        0.00000000       0.00000000      24.58243212        1       1.00000000       0.00000000       0.00000000       0.00000000       0.00000000       0.00000000       0.00000000
H        2.80615512       0.00000000      24.58243212        1       1.00000000       0.00000000       0.00000000       0.00000000       0.00000000       0.00000000       0.00000000
H        1.40307756       2.43020162      24.58243212        1       1.00000000       0.00000000       0.00000000       0.00000000       0.00000000       0.00000000       0.00000000
H        4.20923268       2.43020162      24.58243212        1       1.00000000       0.00000000       0.00000000       0.00000000       0.00000000       0.00000000       0.00000000
H        5.60237921       1.61998829      26.81113101        0       1.00000000      -0.00000053       0.00000010      -0.00000071      -0.00000016      -0.00000106      -0.00000047
H        2.80615459      -0.00000039      17.77172672        0       1.00000000      -0.00000150      -0.00000035      -0.00000058       0.00000002       0.00000094      -0.00000011
H        1.41300886       4.05018915      26.81113097        0       1.00000000      -0.00000010       0.00000018      -0.00000048       0.00000119       0.00000103       0.00000045
H        4.20923286       2.43020130      17.77172687        0       1.00000000       0.00000047       0.00000020       0.00000036       0.00000059      -0.00000350      -0.00000109
H        1.40307762       2.43020155      17.77172681        0       1.00000000       0.00000137       0.00000070      -0.00000028      -0.00000162       0.00000104      -0.00000124
H       -0.00000016       4.86040269      17.77172725        0       1.00000000       0.00000064       0.00000143       0.00000113       0.00000262       0.00000152      -0.00000081
18
Lattice="5.612310241546866 0.0 0.0 0.0 4.860403243099165 0.0 0.0 0.0 44.58243212332868" Properties=species:S:1:pos:R:3:tags:I:1:masses:R:1:momenta:R:3:forces:R:3 KEmax=23.26679191048647 iter=230828 volume=1216.1236359717223 ns_energy=-11.636651374034038 last_walked_iter_clone=228398 energy=-11.63665137403574 stress="0.022580600062913916 6.9141418758977565e-09 5.1391071113118446e-09 6.9141418758977565e-09 0.02269495755867776 -3.463833449501949e-09 5.1391071113118446e-09 -3.463833449501949e-09 0.012369956252794148" pbc="T T F"
H        1.40307756       0.81006721      20.00000000        3       1.00000000       0.00000000       0.00000000       0.00000000       0.00000000       0.00000000       0.00000000
H        4.20923268       0.81006721      20.00000000        3       1.00000000       0.00000000       0.00000000       0.00000000       0.00000000       0.00000000       0.00000000
H        0.00000000       3.24026883      20.00000000        3       1.00000000       0.00000000       0.00000000       0.00000000       0.00000000       0.00000000       0.00000000
H        2.80615512       3.24026883      20.00000000        3       1.00000000       0.00000000       0.00000000       0.00000000       0.00000000       0.00000000       0.00000000
H        0.00000000       1.62013441      22.29121606        2       1.00000000       0.00000000       0.00000000       0.00000000       0.00000000       0.00000000       0.00000000
H        2.80615512       1.62013441      22.29121606        2       1.00000000       0.00000000       0.00000000       0.00000000       0.00000000       0.00000000       0.00000000
H        1.40307756       4.05033604      22.29121606        2       1.00000000       0.00000000       0.00000000       0.00000000       0.00000000       0.00000000       0.00000000
H        4.20923268       4.05033604      22.29121606        2       1.00000000       0.00000000       0.00000000       0.00000000       0.00000000       0.00000000       0.00000000
H        0.00000000       0.00000000      24.58243212        1       1.00000000       0.00000000       0.00000000       0.00000000       0.00000000       0.00000000       0.00000000
H        2.80615512       0.00000000      24.58243212        1       1.00000000       0.00000000       0.00000000       0.00000000       0.00000000       0.00000000       0.00000000
H        1.40307756       2.43020162      24.58243212        1       1.00000000       0.00000000       0.00000000       0.00000000       0.00000000       0.00000000       0.00000000
H        4.20923268       2.43020162      24.58243212        1       1.00000000       0.00000000       0.00000000       0.00000000       0.00000000       0.00000000       0.00000000
H        5.60237884       1.61998760      26.81113036        0       1.00000000       0.00000042      -0.00000101      -0.00000019      -0.00000016      -0.00000106      -0.00000047
H        2.80615610       0.00000022      17.77172676        0       1.00000000      -0.00000067       0.00000026      -0.00000087       0.00000002       0.00000094      -0.00000011
H        1.41300755       4.05018896      26.81113000        0       1.00000000      -0.00000095       0.00000125      -0.00000039       0.00000119       0.00000103       0.00000045