18
Lattice="5.612310241546866 0.0 0.0 0.0 4.860403243099165 0.0 0.0 0.0 44.58243212332868" Properties=species:S:1:pos:R:3:tags:I:1:masses:R:1:momenta:R:3:forces:R:3 KEmax=23.26679191048647 iter=162205 volume=1216.1236359717223 ns_energy=-11.636651373700074 last_walked_iter_clone=162083 energy=-11.636651373892464 stress="0.022580638285258883 -3.382018381767534e-09 -5.849806772546367e-08 -3.382018381767534e-09 0.022695036714969412 2.8191163604692705e-08 -5.849806772546367e-08 2.8191163604692705e-08 0.012370117035087736" pbc="T T F"
H        1.40307756       0.81006721      20.00000000        3       1.00000000       0.00000000       0.00000000       0.00000000       0.00000000       0.00000000       0.00000000
H        4.20923268       0.81006721      20.00000000        3       1.00000000       0.00000000       0.00000000       0.00000000       0.00000000       0.00000000       0.00000000
H        0.00000000       3.24026883      20.00000000        3       1.00000000       0.00000000       0.00000000       0.00000000       0.00000000       0.00000000       0.00000000
H        2.80615512       3.24026883      20.00000000        3       1.00000000       0.00000000       0.00000000       0.00000000       0.00000000       0.00000000       0.00000000
H        0.00000000       1.62013441      22.29121606        2       1.00000000       0.00000000       0.00000000       0.00000000       0.00000000       0.00000000       0.00000000
H        2.80615512       1.62013441      22.29121606        2       1.00000000       0.00000000       0.00000000       0.00000000       0.00000000       0.00000000       0.00000000
H        1.40307756       4.05033604      22.29121606        2       1.00000000       0.00000000       0.00000000       0.00000000       0.00000000       0.00000000       0.00000000
H        4.20923268       4.05033604      22.29121606        2       1.00000000       0.00000000       0.00000000       0.00000000       0.00000000       0.00000000       0.00000000
H        0.00000000       0.00000000      24.58243212        1       1.00000000       0.00000000       0.00000000       0.00000000       0.00000000       0.00000000       0.00000000
H        2.80615512       0.00000000      24.58243212        1       1.00000000       0.00000000       0.00000000       0.00000000       0.00000000       0.00000000       0.00000000
H        1.40307756       2.43020162      24.58243212        1       1.00000000       0.00000000       0.00000000       0.00000000       0.00000000       0.00000000       0.00000000
H        4.20923268       2.43020162      24.58243212        1       1.00000000       0.00000000       0.00000000       0.00000000       0.00000000       0.00000000       0.00000000
H        5.60238165       1.61999866      26.81113458        0       1.00000000      -0.00000277      -0.00000733       0.00000341       0.00000367      -0.00000094      -0.00000300
H        2.80615813       4.86040098      17.77173002        0       1.00000000      -0.00000244       0.00000343      -0.00000188       0.00001152       0.00000936       0.00000684
H        1.41300503       4.05019287      26.81113479        0       1.00000000       0.00000578       0.00000555      -0.00000662      -0.00000114      -0.00000205      -0.00000135
H        4.20923144       2.43020307      17.77172455        0       1.00000000      -0.00000011       0.00000262      -0.00000387      -0.00000737      -0.00000898       0.00000203
H        1.40307949       2.43020217      17.77172494        0       1.00000000      -0.00000470      -0.00000172      -0.00000213      -0.00001091      -0.00001570       0.00000332
H        0.00000151       4.86040166      17.77172710        0       1.00000000      -0.00000414       0.00000152      -0.00000126       0.00000284       0.00001588      -0.00000143
18
Lattice="5.612310241546866 0.0 0.0 0.0 4.860403243099165 0.0 0.0 0.0 44.58243212332868" Properties=species:S:1:pos:R:3:tags:I:1:masses:R:1:momenta:R:3:forces:R:3 KEmax=23.26679191048647 iter=162205 volume=1216.1236359717223 ns_energy=-11.636651373695686 last_walked_iter_clone=162167 energy=-11.636651373892464 stress="0.022580638285258883 -3.382018381767534e-09 -5.849806772546367e-08 -3.382018381767534e-09 0.022695036714969412 2.8191163604692705e-08 -5.849806772546367e-08 2.8191163604692705e-08 0.012370117035087736" pbc="T T F"
H        1.40307756       0.81006721      20.00000000        3       1.00000000       0.00000000       0.00000000       0.00000000       0.00000000       0.00000000       0.00000000
H        4.20923268       0.81006721      20.00000000        3       1.00000000       0.00000000       0.00000000       0.00000000       0.00000000       0.00000000       0.00000000
H        0.00000000       3.24026883      20.00000000        3       1.00000000       0.00000000       0.00000000       0.00000000       0.00000000       0.00000000       0.00000000
H        2.80615512       3.24026883      20.00000000        3       1.00000000       0.00000000       0.00000000       0.00000000       0.00000000       0.00000000       0.00000000
H        0.00000000       1.62013441      22.29121606        2       1.00000000       0.00000000       0.00000000       0.00000000       0.00000000       0.00000000       0.00000000
H        2.80615512       1.62013441      22.29121606        2       1.00000000       0.00000000       0.00000000       0.00000000       0.00000000       0.00000000       0.00000000
H        1.40307756       4.05033604      22.29121606        2       1.00000000       0.00000000       0.00000000       0.00000000       0.00000000       0.00000000       0.00000000
H        4.20923268       4.05033604      22.29121606        2       1.00000000       0.00000000       0.00000000       0.00000000       0.00000000       0.00000000       0.00000000
H        0.00000000       0.00000000      24.58243212        1       1.00000000       0.00000000       0.00000000       0.00000000       0.00000000       0.00000000       0.00000000
H        2.80615512       0.00000000      24.58243212        1       1.00000000       0.00000000       0.00000000       0.00000000       0.00000000       0.00000000       0.00000000
H        1.40307756       2.43020162      24.58243212        1       1.00000000       0.00000000       0.00000000       0.00000000       0.00000000       0.00000000       0.00000000
H        4.20923268       2.43020162      24.58243212        1       1.00000000       0.00000000       0.00000000       0.00000000       0.00000000       0.00000000       0.00000000
H        5.60238488       1.61998570      26.81112864        0       1.00000000      -0.00000041      -0.00000067      -0.00000497       0.00000367      -0.00000094      -0.00000300
H        2.80614997       0.00000136      17.77172772        0       1.00000000       0.00000265      -0.00000559      -0.00000062       0.00001152       0.00000936       0.00000684
H        1.41301667       4.05019023      26.81113141        0       1.00000000       0.00000768       0.00000119      -0.00000004      -0.00000114      -0.00000205      -0.00000135
H        4.20922750       2.43020172      17.77172747        0       1.00000000       0.00000018      -0.00000362       0.00000341      -0.00000737      -0.00000898       0.00000203
H        1.40307993       2.43019878      17.77173267        0       1.00000000       0.00000386      -0.00000411      -0.00000182      -0.00001091      -0.00001570       0.00000332
H        5.61230735      -0.00000490      17.77173042        0       1.00000000      -0.00000344      -0.00000115      -0.00000434       0.00000284       0.00001588      -0.00000143
18
Lattice="5.612310241546866 0.0 0.0 0.0 4.860403243099165 0.0 0.0 0.0 44.58243212332868" Properties=species:S:1:pos:R:3:tags:I:1:masses:R:1:momenta:R:3:forces:R:3 KEmax=23.26679191048647 iter=162205 volume=1216.1236359717223 ns_energy=-11.6366513737132 last_walked_iter_clone=161949 energy=-11.636651373892464 stress="0.022580638285258883 -3.382018381767534e-09 -5.849806772546367e-08 -3.382018381767534e-09 0.022695036714969412 2.8191163604692705e-08 -5.849806772546367e-08 2.8191163604692705e-08 0.012370117035087736" pbc="T T F"
H        1.40307756       0.81006721      20.00000000        3       1.00000000       0.00000000       0.00000000       0.00000000       0.00000000       0.00000000       0.00000000
H        4.20923268       0.81006721      20.00000000        3       1.00000000       0.00000000       0.00000000       0.00000000       0.00000000       0.00000000       0.00000000
H        0.00000000       3.24026883      20.00000000        3       1.00000000       0.00000000       0.00000000       0.00000000       0.00000000       0.00000000       0.00000000
H        2.80615512       3.24026883      20.00000000        3       1.00000000       0.00000000       0.00000000       0.00000000       0.00000000       0.00000000       0.00000000
H        0.00000000       1.62013441      22.29121606        2       1.00000000       0.00000000       0.00000000       0.00000000       0.00000000       0.00000000       0.00000000
H        2.80615512       1.62013441      22.29121606        2       1.00000000       0.00000000       0.00000000       0.00000000       0.00000000       0.00000000       0.00000000
H        1.40307756       4.05033604      22.29121606        2       1.00000000       0.00000000       0.00000000       0.00000000       0.00000000       0.00000000       0.00000000
H        4.20923268       4.05033604      22.29121606        2       1.00000000       0.00000000       0.00000000       0.00000000       0.00000000       0.00000000       0.00000000
H        0.00000000       0.00000000      24.58243212        1       1.00000000       0.00000000       0.00000000       0.00000000       0.00000000       0.00000000       0.00000000
H        2.80615512       0.00000000      24.58243212        1       1.00000000       0.00000000       0.00000000       0.00000000       0.00000000       0.00000000       0.00000000
H        1.40307756       2.43020162      24.58243212        1       1.00000000       0.00000000       0.00000000       0.00000000       0.00000000       0.00000000       0.00000000
H        4.20923268       2.43020162      24.58243212        1       1.00000000       0.00000000       0.00000000       0.00000000       0.00000000       0.00000000       0.00000000
H        5.60238159       1.61999823      26.81112766        0       1.00000000      -0.00000566       0.00000041      -0.00000221       0.00000367      -0.00000094      -0.00000300
H        2.80615932       4.86040368      17.77172837        0       1.00000000       0.00000033       0.00000083       0.00000017       0.00001152       0.00000936       0.00000684
H        1.41300748       4.05019430      26.81112834        0       1.00000000      -0.00000307       0.00000475      -0.00001097      -0.00000114      -0.00000205      -0.00000135
H        4.20923287       2.43020715      17.77172949        0       1.00000000      -0.00000399       0.00000094      -0.00000570      -0.00000737      -0.00000898       0.00000203
H        1.40308012       2.43020059      17.77172799        0       1.00000000       0.00000410      -0.00000207      -0.00000175      -0.00001091      -0.00001570       0.00000332
H        5.61231466      -0.00000187      17.77172514        0       1.00000000      -0.00000042       0.00000088       0.00000255       0.00000284       0.00001588      -0.00000143
18
Lattice="5.612310241546866 0.0 0.0 0.0 4.860403243099165 0.0 0.0 0.0 44.58243212332868" Properties=species:S:1:pos:R:3:tags:I:1:masses:R:1:momenta:R:3:forces:R:3 KEmax=23.26679191048647 iter=162205 volume=1216.1236359717223 ns_energy=-11.636651373704192 last_walked_iter_clone=161622 energy=-11.636651373892464 stress="0.022580638285258883 -3.382018381767534e-09 -5.849806772546367e-08 -3.382018381767534e-09 0.022695036714969412 2.8191163604692705e-08 -5.849806772546367e-08 2.8191163604692705e-08 0.012370117035087736" pbc="T T F"
H        1.40307756       0.81006721      20.00000000        3       1.00000000       0.00000000       0.00000000       0.00000000       0.00000000       0.00000000       0.00000000
H        4.20923268       0.81006721      20.00000000        3       1.00000000       0.00000000       0.00000000       0.00000000       0.00000000       0.00000000       0.00000000
H        0.00000000       3.24026883      20.00000000        3       1.00000000       0.00000000       0.00000000       0.00000000       0.00000000       0.00000000       0.00000000
H        2.80615512       3.24026883      20.00000000        3       1.00000000       0.00000000       0.00000000       0.00000000       0.00000000       0.00000000       0.00000000
H        0.00000000       1.62013441      22.29121606        2       1.00000000       0.00000000       0.00000000       0.00000000       0.00000000       0.00000000       0.00000000
H        2.80615512       1.62013441      22.29121606        2       1.00000000       0.00000000       0.00000000       0.00000000       0.00000000       0.00000000       0.00000000
H        1.40307756       4.05033604      22.29121606        2       1.00000000       0.00000000       0.00000000       0.00000000       0.00000000       0.00000000       0.00000000
H        4.20923268       4.05033604      22.29121606        2       1.00000000       0.00000000       0.00000000       0.00000000       0.00000000       0.00000000       0.00000000
H        0.00000000       0.00000000      24.58243212        1       1.00000000       0.00000000       0.00000000       0.00000000       0.00000000       0.00000000       0.00000000
H        2.80615512       0.00000000      24.58243212        1       1.00000000       0.00000000       0.00000000       0.00000000       0.00000000       0.00000000       0.00000000
H        1.40307756       2.43020162      24.58243212        1       1.00000000       0.00000000       0.00000000       0.00000000       0.00000000       0.00000000       0.00000000
H        4.20923268       2.43020162      24.58243212        1       1.00000000       0.00000000       0.00000000       0.00000000       0.00000000       0.00000000       0.00000000
H        5.60237667       1.61999520      26.81113095        0       1.00000000      -0.00000040      -0.00000414      -0.00000086       0.00000367      -0.00000094      -0.00000300
H        2.80615641       4.86040109      17.77172788        0       1.00000000      -0.00000498      -0.00000332      -0.00000084       0.00001152       0.00000936       0.00000684
H        1.41300791       4.05019050      26.81113400        0       1.00000000      -0.00000405       0.00000304       0.00001165      -0.00000114      -0.00000205      -0.00000135
H        4.20923178       2.43019997      17.77173075        0       1.00000000      -0.00000006       0.00000831       0.00000567      -0.00000737      -0.00000898       0.00000203
H        1.40308082       2.43020181      17.77172594        0       1.00000000      -0.00000060       0.00000076      -0.00000656      -0.00001091      -0.00001570       0.00000332
H        0.00000056       4.86039970      17.77173027        0       1.00000000      -0.00000432      -0.00000131      -0.00000243       0.00000284       0.00001588      -0.00000143
18
Lattice="5.612310241546866 0.0 0.0 0.0 4.860403243099165 0.0 0.0 0.0 44.58243212332868" Properties=species:S:1:pos:R:3:tags:I:1:masses:R:1:momenta:R:3:forces:R:3 KEmax=23.26679191048647 iter=162205 volume=1216.1236359717223 ns_energy=-11.636651373698811 last_walked_iter_clone=162129 energy=-11.636651373892464 stress="0.022580638285258883 -3.382018381767534e-09 -5.849806772546367e-08 -3.382018381767534e-09 0.022695036714969412 2.8191163604692705e-08 -5.849806772546367e-08 2.8191163604692705e-08 0.012370117035087736" pbc="T T F"
H        1.40307756       0.81006721      20.00000000        3       1.00000000       0.00000000       0.00000000       0.00000000       0.00000000       0.00000000       0.00000000
H        4.20923268       0.81006721      20.00000000        3       1.00000000       0.00000000       0.00000000       0.00000000       0.00000000       0.00000000       0.00000000
H        0.00000000       3.24026883      20.00000000        3       1.00000000       0.00000000       0.00000000       0.00000000       0.00000000       0.00000000       0.00000000
H        2.80615512       3.24026883      20.00000000        3       1.00000000       0.00000000       0.00000000       0.00000000       0.00000000       0.00000000       0.00000000
H        0.00000000       1.62013441      22.29121606        2       1.00000000       0.00000000       0.00000000       0.00000000       0.00000000       0.00000000       0.00000000
H        2.80615512       1.62013441      22.29121606        2       1.00000000       0.00000000       0.00000000       0.00000000       0.00000000       0.00000000       0.00000000
H        1.40307756       4.05033604      22.29121606        2       1.00000000       0.00000000       0.00000000       0.00000000       0.00000000       0.00000000       0.00000000
H        4.20923268       4.05033604      22.29121606        2       1.00000000       0.00000000       0.00000000       0.00000000       0.00000000       0.00000000       0.00000000
H        0.00000000       0.00000000      24.58243212        1       1.00000000       0.00000000       0.00000000       0.00000000       0.00000000       0.00000000       0.00000000
H        2.80615512       0.00000000      24.58243212        1       1.00000000       0.00000000       0.00000000       0.00000000       0.00000000       0.00000000       0.00000000
H        1.40307756       2.43020162      24.58243212        1       1.00000000       0.00000000       0.00000000       0.00000000       0.00000000       0.00000000       0.00000000
H        4.20923268       2.43020162      24.58243212        1       1.00000000       0.00000000       0.00000000       0.00000000       0.00000000       0.00000000       0.00000000
H        5.60237857       1.61999423      26.81113023        0       1.00000000      -0.00000854      -0.00000246       0.00000722       0.00000367      -0.00000094      -0.00000300
H        2.80615291      -0.00000359      17.77172887        0       1.00000000      -0.00000089       0.00000361      -0.00000238       0.00001152       0.00000936       0.00000684
H        1.41301796       4.05019227      26.81113228        0       1.00000000      -0.00000287       0.00000163      -0.00000112      -0.00000114      -0.00000205      -0.00000135
H        4.20923495       2.43020341      17.77172593        0       1.00000000       0.00000704       0.00000113      -0.00000054      -0.00000737      -0.00000898       0.00000203
H        1.40307910       2.43019931      17.77173029        0       1.00000000      -0.00000780      -0.00000143      -0.00000336      -0.00001091      -0.00001570       0.00000332
H       -0.00000018       4.86040489      17.77172463        0       1.00000000      -0.00000619      -0.00000519       0.00000370       0.00000284       0.00001588      -0.00000143
18
Lattice="5.612310241546866 0.0 0.0 0.0 4.860403243099165 0.0 0.0 0.0 44.58243212332868" Properties=species:S:1:pos:R:3:tags:I:1:masses:R:1:momenta:R:3:forces:R:3 KEmax=23.26679191048647 iter=162205 volume=1216.1236359717223 ns_energy=-11.636651373696786 last_walked_iter_clone=162159 energy=-11.636651373892464 stress="0.022580638285258883 -3.382018381767534e-09 -5.849806772546367e-08 -3.382018381767534e-09 0.022695036714969412 2.8191163604692705e-08 -5.849806772546367e-08 2.8191163604692705e-08 0.012370117035087736" pbc="T T F"
H        1.40307756       0.81006721      20.00000000        3       1.00000000       0.00000000       0.00000000       0.00000000       0.00000000       0.00000000       0.00000000
H        4.20923268       0.81006721      20.00000000        3       1.00000000       0.00000000       0.00000000       0.00000000       0.00000000       0.00000000       0.00000000
H        0.00000000       3.24026883      20.00000000        3       1.00000000       0.00000000       0.00000000       0.00000000       0.00000000       0.00000000       0.00000000
H        2.80615512       3.24026883      20.00000000        3       1.00000000       0.00000000       0.00000000       0.00000000       0.00000000       0.00000000       0.00000000
H        0.00000000       1.62013441      22.29121606        2       1.00000000       0.00000000       0.00000000       0.00000000       0.00000000       0.00000000       0.00000000
H        2.80615512       1.62013441      22.29121606        2       1.00000000       0.00000000       0.00000000       0.00000000       0.00000000       0.00000000       0.00000000
H        1.40307756       4.05033604      22.29121606        2       1.00000000       0.00000000       0.00000000       0.00000000       0.00000000       0.00000000       0.00000000
H        4.20923268       4.05033604      22.29121606        2       1.00000000       0.00000000       0.00000000       0.00000000       0.00000000       0.00000000       0.00000000
H        0.00000000       0.00000000      24.58243212        1       1.00000000       0.00000000       0.00000000       0.00000000       0.00000000       0.00000000       0.00000000
H        2.80615512       0.00000000      24.58243212        1       1.00000000       0.00000000       0.00000000       0.00000000       0.00000000       0.00000000       0.00000000
H        1.40307756       2.43020162      24.58243212        1       1.00000000       0.00000000       0.00000000       0.00000000       0.00000000       0.00000000       0.00000000
H        4.20923268       2.43020162      24.58243212        1       1.00000000       0.00000000       0.00000000       0.00000000       0.00000000       0.00000000       0.00000000
H        5.60237744       1.61999092      26.81112999        0       1.00000000       0.00000650       0.00000083       0.00000490       0.00000367      -0.00000094      -0.00000300
H        2.80615618       4.86040171      17.77172923        0       1.00000000      -0.00000013       0.00000258       0.00000374       0.00001152       0.00000936       0.00000684
H        1.41300344       4.05019007      26.81113064        0       1.00000000       0.00000014      -0.00000272       0.00000161      -0.00000114      -0.00000205      -0.00000135
H        4.20923473       2.43019989      17.77172702        0       1.00000000      -0.00000455      -0.00000698      -0.00000631      -0.00000737      -0.00000898       0.00000203
H        1.40307618       2.43019322      17.77172407        0       1.00000000      -0.00001002       0.00000078       0.00000245      -0.00001091      -0.00001570       0.00000332
H       -0.00000365      -0.00000603      17.77172985        0       1.00000000      -0.00000482       0.00000122      -0.00000013       0.00000284       0.00001588      -0.00000143
18
Lattice="5.612310241546866 0.0 0.0 0.0 4.860403243099165 0.0 0.0 0.0 44.58243212332868" Properties=species:S:1:pos:R:3:tags:I:1:masses:R:1:momenta:R:3:forces:R:3 KEmax=23.26679191048647 iter=162205 volume=1216.1236359717223 ns_energy=-11.636651373696491 last_walked_iter_clone=162145 energy=-11.636651373892464 stress="0.022580638285258883 -3.382018381767534e-09 -5.849806772546367e-08 -3.382018381767534e-09 0.022695036714969412 2.8191163604692705e-08 -5.849806772546367e-08 2.8191163604692705e-08 0.012370117035087736" pbc="T T F"
H        1.40307756       0.81006721      20.00000000        3       1.00000000       0.00000000       0.00000000       0.00000000       0.00000000       0.00000000       0.00000000
H        4.20923268       0.81006721      20.00000000        3       1.00000000       0.00000000       0.00000000       0.00000000       0.00000000       0.00000000       0.00000000
H        0.00000000       3.24026883      20.00000000        3       1.00000000       0.00000000       0.00000000       0.00000000       0.00000000       0.00000000       0.00000000
H        2.80615512       3.24026883      20.00000000        3       1.00000000       0.00000000       0.00000000       0.00000000       0.00000000       0.00000000       0.00000000
H        0.00000000       1.62013441      22.29121606        2       1.00000000       0.00000000       0.00000000       0.00000000       0.00000000       0.00000000       0.00000000
H        2.80615512       1.62013441      22.29121606        2       1.00000000       0.00000000       0.00000000       0.00000000       0.00000000       0.00000000       0.00000000
H        1.40307756       4.05033604      22.29121606        2       1.00000000       0.00000000       0.00000000       0.00000000       0.00000000       0.00000000       0.00000000
H        4.20923268       4.05033604      22.29121606        2       1.00000000       0.00000000       0.00000000       0.00000000       0.00000000       0.00000000       0.00000000
H        0.00000000       0.00000000      24.58243212        1       1.00000000       0.00000000       0.00000000       0.00000000       0.00000000       0.00000000       0.00000000
H        2.80615512       0.00000000      24.58243212        1       1.00000000       0.00000000       0.00000000       0.00000000       0.00000000       0.00000000       0.00000000
H        1.40307756       2.43020162      24.58243212        1       1.00000000       0.00000000       0.00000000       0.00000000       0.00000000       0.00000000       0.00000000
H        4.20923268       2.43020162      24.58243212        1       1.00000000       0.00000000       0.00000000       0.00000000       0.00000000       0.00000000       0.00000000
H        5.60238713       1.61998437      26.81113251        0       1.00000000      -0.00000420      -0.00000749       0.00000148       0.00000367      -0.00000094      -0.00000300
H        2.80615626      -0.00000105      17.77172834        0       1.00000000      -0.00000063      -0.00000466       0.00000658       0.00001152       0.00000936       0.00000684
H        1.41301770       4.05018749      26.81112631        0       1.00000000       0.00000505       0.00000304      -0.00000334      -0.00000114      -0.00000205      -0.00000135
H        4.20923142       2.43020583      17.77172728        0       1.00000000      -0.00000079      -0.00000587      -0.00000152      -0.00000737      -0.00000898       0.00000203
H        1.40307658       2.43020086      17.77172381        0       1.00000000       0.00000038      -0.00000655       0.00000478      -0.00001091      -0.00001570       0.00000332
H        5.61231117       0.00000295      17.77172685        0       1.00000000       0.00000660       0.00000827      -0.00000148       0.00000284       0.00001588      -0.00000143
18
Lattice="5.612310241546866 0.0 0.0 0.0 4.860403243099165 0.0 0.0 0.0 44.58243212332868" Properties=species:S:1:pos:R:3:tags:I:1:masses:R:1:momenta:R:3:forces:R:3 KEmax=23.26679191048647 iter=162205 volume=1216.1236359717223 ns_energy=-11.63665137372266 last_walked_iter_clone=162196 energy=-11.636651373892464 stress="0.022580638285258883 -3.382018381767534e-09 -5.849806772546367e-08 -3.382018381767534e-09 0.022695036714969412 2.8191163604692705e-08 -5.849806772546367e-08 2.8191163604692705e-08 0.012370117035087736" pbc="T T F"
H        1.40307756       0.81006721      20.00000000        3       1.00000000       0.00000000       0.00000000       0.00000000       0.00000000       0.00000000       0.00000000
H        4.20923268       0.81006721      20.00000000        3       1.00000000       0.00000000       0.00000000       0.00000000       0.00000000       0.00000000       0.00000000
H        0.00000000       3.24026883      20.00000000        3       1.00000000       0.00000000       0.00000000       0.00000000       0.00000000       0.00000000       0.00000000
H        2.80615512       3.24026883      20.00000000        3       1.00000000       0.00000000       0.00000000       0.00000000       0.00000000       0.00000000       0.00000000
H        0.00000000       1.62013441      22.29121606        2       1.00000000       0.00000000       0.00000000       0.00000000       0.00000000       0.00000000       0.00000000
H        2.80615512       1.62013441      22.29121606        2       1.00000000       0.00000000       0.00000000       0.00000000       0.00000000       0.00000000       0.00000000
H        1.40307756       4.05033604      22.29121606        2       1.00000000       0.00000000       0.00000000       0.00000000       0.00000000       0.00000000       0.00000000
H        4.20923268       4.05033604      22.29121606        2       1.00000000       0.00000000       0.00000000       0.00000000       0.00000000       0.00000000       0.00000000
H        0.00000000       0.00000000      24.58243212        1       1.00000000       0.00000000       0.00000000       0.00000000       0.00000000       0.00000000       0.00000000
H        2.80615512       0.00000000      24.58243212        1       1.00000000       0.00000000       0.00000000       0.00000000       0.00000000       0.00000000       0.00000000
H        1.40307756       2.43020162      24.58243212        1       1.00000000       0.00000000       0.00000000       0.00000000       0.00000000       0.00000000       0.00000000
H        4.20923268       2.43020162      24.58243212        1       1.00000000       0.00000000       0.00000000       0.00000000       0.00000000       0.00000000       0.00000000
H        5.60237769       1.61998280      26.81113163        0       1.00000000       0.00000038       0.00000331      -0.00000622       0.00000367      -0.00000094      -0.00000300
H        2.80615719       4.86040818      17.77172775        0       1.00000000       0.00000146      -0.00000315      -0.00000015       0.00001152       0.00000936       0.00000684
H        1.41301164       4.05018776      26.81112705        0       1.00000000       0.00000254      -0.00000176       0.00000010      -0.00000114      -0.00000205      -0.00000135