19
Lattice="5.612310241546866 0.0 0.0 0.0 4.860403243099165 0.0 0.0 0.0 24.582432123328676" Properties=species:S:1:pos:R:3:tags:I:1:masses:R:1:momenta:R:3:forces:R:3 KEmax=24.559391461069055 iter=77697 volume=670.5618179858607 ns_energy=-12.521060954703993 last_walked_iter_clone=77598 energy=-12.521060957258488 stress="0.023998751485664438 -1.600054791484096e-07 -2.6165178621354006e-07 -1.600054791484096e-07 0.024126718458878645 -1.3886975671494993e-07 -2.6165178621354006e-07 -1.3886975671494993e-07 0.012900640729825203" pbc="T T F"
H        1.40307756       0.81006721      10.00000000        3       1.00000000       0.00000000       0.00000000       0.00000000       0.00000000       0.00000000       0.00000000
H        4.20923268       0.81006721      10.00000000        3       1.00000000       0.00000000       0.00000000       0.00000000       0.00000000       0.00000000       0.00000000
H        0.00000000       3.24026883      10.00000000        3       1.00000000       0.00000000       0.00000000       0.00000000       0.00000000       0.00000000       0.00000000
H        2.80615512       3.24026883      10.00000000        3       1.00000000       0.00000000       0.00000000       0.00000000       0.00000000       0.00000000       0.00000000
H        0.00000000       1.62013441      12.29121606        2       1.00000000       0.00000000       0.00000000       0.00000000       0.00000000       0.00000000       0.00000000
H        2.80615512       1.62013441      12.29121606        2       1.00000000       0.00000000       0.00000000       0.00000000       0.00000000       0.00000000       0.00000000
H        1.40307756       4.05033604      12.29121606        2       1.00000000       0.00000000       0.00000000       0.00000000       0.00000000       0.00000000       0.00000000
H        4.20923268       4.05033604      12.29121606        2       1.00000000       0.00000000       0.00000000       0.00000000       0.00000000       0.00000000       0.00000000
H        0.00000000       0.00000000      14.58243212        1       1.00000000       0.00000000       0.00000000       0.00000000       0.00000000       0.00000000       0.00000000
H        2.80615512       0.00000000      14.58243212        1       1.00000000       0.00000000       0.00000000       0.00000000       0.00000000       0.00000000       0.00000000
H        1.40307756       2.43020162      14.58243212        1       1.00000000       0.00000000       0.00000000       0.00000000       0.00000000       0.00000000       0.00000000
H        4.20923268       2.43020162      14.58243212        1       1.00000000       0.00000000       0.00000000       0.00000000       0.00000000       0.00000000       0.00000000
H        4.20922949       2.43019255       7.77172152        0       1.00000000       0.00001073       0.00000560      -0.00000305      -0.00001885       0.00001843       0.00004811
H        1.40309000       0.81009214      16.81070227        0       1.00000000      -0.00002013      -0.00000791       0.00001811       0.00000488       0.00001204      -0.00000304
H        5.61230860      -0.00000507       7.77172404        0       1.00000000      -0.00000781      -0.00002196      -0.00001843      -0.00000130      -0.00002773      -0.00002167
H        2.80921754       3.24031105      16.81071573        0       1.00000000      -0.00000823       0.00001368       0.00002344       0.00000414       0.00000397      -0.00001103
H        1.40306462       2.43019263       7.77173262        0       1.00000000       0.00000667      -0.00001499      -0.00002129      -0.00001177      -0.00001627      -0.00000439
H        5.60928943       3.24029195      16.81070839        0       1.00000000       0.00000581       0.00001886       0.00001570      -0.00000419      -0.00000327      -0.00000716
H        2.80615552      -0.00000934       7.77172698        0       1.00000000       0.00001575      -0.00002162      -0.00000328       0.00000784       0.00002293      -0.00000620
19
Lattice="5.612310241546866 0.0 0.0 0.0 4.860403243099165 0.0 0.0 0.0 24.582432123328676" Properties=species:S:1:pos:R:3:tags:I:1:masses:R:1:momenta:R:3:forces:R:3 KEmax=24.559391461069055 iter=77697 volume=670.5618179858607 ns_energy=-12.52106095469042 last_walked_iter_clone=77696 energy=-12.521060957258488 stress="0.023998751485664438 -1.600054791484096e-07 -2.6165178621354006e-07 -1.600054791484096e-07 0.024126718458878645 -1.3886975671494993e-07 -2.6165178621354006e-07 -1.3886975671494993e-07 0.012900640729825203" pbc="T T F"
H        1.40307756       0.81006721      10.00000000        3       1.00000000       0.00000000       0.00000000       0.00000000       0.00000000       0.00000000       0.00000000
H        4.20923268       0.81006721      10.00000000        3       1.00000000       0.00000000       0.00000000       0.00000000       0.00000000       0.00000000       0.00000000
H        0.00000000       3.24026883      10.00000000        3       1.00000000       0.00000000       0.00000000       0.00000000       0.00000000       0.00000000       0.00000000
H        2.80615512       3.24026883      10.00000000        3       1.00000000       0.00000000       0.00000000       0.00000000       0.00000000       0.00000000       0.00000000
H        0.00000000       1.62013441      12.29121606        2       1.00000000       0.00000000       0.00000000       0.00000000       0.00000000       0.00000000       0.00000000
H        2.80615512       1.62013441      12.29121606        2       1.00000000       0.00000000       0.00000000       0.00000000       0.00000000       0.00000000       0.00000000
H        1.40307756       4.05033604      12.29121606        2       1.00000000       0.00000000       0.00000000       0.00000000       0.00000000       0.00000000       0.00000000
H        4.20923268       4.05033604      12.29121606        2       1.00000000       0.00000000       0.00000000       0.00000000       0.00000000       0.00000000       0.00000000
H        0.00000000       0.00000000      14.58243212        1       1.00000000       0.00000000       0.00000000       0.00000000       0.00000000       0.00000000       0.00000000
H        2.80615512       0.00000000      14.58243212        1       1.00000000       0.00000000       0.00000000       0.00000000       0.00000000       0.00000000       0.00000000
H        1.40307756       2.43020162      14.58243212        1       1.00000000       0.00000000       0.00000000       0.00000000       0.00000000       0.00000000       0.00000000
H        4.20923268       2.43020162      14.58243212        1       1.00000000       0.00000000       0.00000000       0.00000000       0.00000000       0.00000000       0.00000000
H        4.20924318       2.43018756       7.77171005        0       1.00000000       0.00001450      -0.00000153      -0.00002690      -0.00001885       0.00001843       0.00004811
H        1.40309639       0.81008734      16.81070433        0       1.00000000       0.00001398      -0.00003232      -0.00000299       0.00000488       0.00001204      -0.00000304
H        5.61231222       4.86038781       7.77173043        0       1.00000000      -0.00000275       0.00000608       0.00001613      -0.00000130      -0.00002773      -0.00002167
H        2.80920221       3.24028139      16.81072275        0       1.00000000      -0.00000009       0.00000644      -0.00000855       0.00000414       0.00000397      -0.00001103
H        1.40308040       2.43020566       7.77173086        0       1.00000000       0.00000401       0.00002420       0.00000227      -0.00001177      -0.00001627      -0.00000439
H        5.60928576       3.24028251      16.81071508        0       1.00000000       0.00000438       0.00001826       0.00000925      -0.00000419      -0.00000327      -0.00000716
H        2.80616199       4.86039628       7.77171955        0       1.00000000       0.00000145       0.00000118       0.00001046       0.00000784       0.00002293      -0.00000620
19
Lattice="5.612310241546866 0.0 0.0 0.0 4.860403243099165 0.0 0.0 0.0 24.582432123328676" Properties=species:S:1:pos:R:3:tags:I:1:masses:R:1:momenta:R:3:forces:R:3 KEmax=24.559391461069055 iter=77697 volume=670.5618179858607 ns_energy=-12.521060954619507 last_walked_iter_clone=77607 energy=-12.521060957258488 stress="0.023998751485664438 -1.600054791484096e-07 -2.6165178621354006e-07 -1.600054791484096e-07 0.024126718458878645 -1.3886975671494993e-07 -2.6165178621354006e-07 -1.3886975671494993e-07 0.012900640729825203" pbc="T T F"
H        1.40307756       0.81006721      10.00000000        3       1.00000000       0.00000000       0.00000000       0.00000000       0.00000000       0.00000000       0.00000000
H        4.20923268       0.81006721      10.00000000        3       1.00000000       0.00000000       0.00000000       0.00000000       0.00000000       0.00000000       0.00000000
H        0.00000000       3.24026883      10.00000000        3       1.00000000       0.00000000       0.00000000       0.00000000       0.00000000       0.00000000       0.00000000
H        2.80615512       3.24026883      10.00000000        3       1.00000000       0.00000000       0.00000000       0.00000000       0.00000000       0.00000000       0.00000000
H        0.00000000       1.62013441      12.29121606        2       1.00000000       0.00000000       0.00000000       0.00000000       0.00000000       0.00000000       0.00000000
H        2.80615512       1.62013441      12.29121606        2       1.00000000       0.00000000       0.00000000       0.00000000       0.00000000       0.00000000       0.00000000
H        1.40307756       4.05033604      12.29121606        2       1.00000000       0.00000000       0.00000000       0.00000000       0.00000000       0.00000000       0.00000000
H        4.20923268       4.05033604      12.29121606        2       1.00000000       0.00000000       0.00000000       0.00000000       0.00000000       0.00000000       0.00000000
H        0.00000000       0.00000000      14.58243212        1       1.00000000       0.00000000       0.00000000       0.00000000       0.00000000       0.00000000       0.00000000
H        2.80615512       0.00000000      14.58243212        1       1.00000000       0.00000000       0.00000000       0.00000000       0.00000000       0.00000000       0.00000000
H        1.40307756       2.43020162      14.58243212        1       1.00000000       0.00000000       0.00000000       0.00000000       0.00000000       0.00000000       0.00000000
H        4.20923268       2.43020162      14.58243212        1       1.00000000       0.00000000       0.00000000       0.00000000       0.00000000       0.00000000       0.00000000
H        4.20923208       2.43018662       7.77172456        0       1.00000000      -0.00000271      -0.00001822       0.00000304      -0.00001885       0.00001843       0.00004811
H        1.40309221       0.81008333      16.81070088        0       1.00000000       0.00000150       0.00000167      -0.00001505       0.00000488       0.00001204      -0.00000304
H       -0.00000901      -0.00001891       7.77173389        0       1.00000000      -0.00001130       0.00002855       0.00001079      -0.00000130      -0.00002773      -0.00002167
H        2.80919195       3.24028566      16.81072439        0       1.00000000      -0.00000186       0.00002480       0.00000589       0.00000414       0.00000397      -0.00001103
H        1.40307594       2.43019745       7.77173668        0       1.00000000      -0.00001499       0.00000354      -0.00000614      -0.00001177      -0.00001627      -0.00000439
H        5.60927688       3.24027800      16.81070218        0       1.00000000      -0.00003751       0.00001329      -0.00001036      -0.00000419      -0.00000327      -0.00000716
H        2.80615529       4.86039401       7.77172094        0       1.00000000      -0.00001625       0.00000241       0.00000193       0.00000784       0.00002293      -0.00000620
19
Lattice="5.612310241546866 0.0 0.0 0.0 4.860403243099165 0.0 0.0 0.0 24.582432123328676" Properties=species:S:1:pos:R:3:tags:I:1:masses:R:1:momenta:R:3:forces:R:3 KEmax=24.559391461069055 iter=77697 volume=670.5618179858607 ns_energy=-12.521060954753601 last_walked_iter_clone=77646 energy=-12.521060957258488 stress="0.023998751485664438 -1.600054791484096e-07 -2.6165178621354006e-07 -1.600054791484096e-07 0.024126718458878645 -1.3886975671494993e-07 -2.6165178621354006e-07 -1.3886975671494993e-07 0.012900640729825203" pbc="T T F"
H        1.40307756       0.81006721      10.00000000        3       1.00000000       0.00000000       0.00000000       0.00000000       0.00000000       0.00000000       0.00000000
H        4.20923268       0.81006721      10.00000000        3       1.00000000       0.00000000       0.00000000       0.00000000       0.00000000       0.00000000       0.00000000
H        0.00000000       3.24026883      10.00000000        3       1.00000000       0.00000000       0.00000000       0.00000000       0.00000000       0.00000000       0.00000000
H        2.80615512       3.24026883      10.00000000        3       1.00000000       0.00000000       0.00000000       0.00000000       0.00000000       0.00000000       0.00000000
H        0.00000000       1.62013441      12.29121606        2       1.00000000       0.00000000       0.00000000       0.00000000       0.00000000       0.00000000       0.00000000
H        2.80615512       1.62013441      12.29121606        2       1.00000000       0.00000000       0.00000000       0.00000000       0.00000000       0.00000000       0.00000000
H        1.40307756       4.05033604      12.29121606        2       1.00000000       0.00000000       0.00000000       0.00000000       0.00000000       0.00000000       0.00000000
H        4.20923268       4.05033604      12.29121606        2       1.00000000       0.00000000       0.00000000       0.00000000       0.00000000       0.00000000       0.00000000
H        0.00000000       0.00000000      14.58243212        1       1.00000000       0.00000000       0.00000000       0.00000000       0.00000000       0.00000000       0.00000000
H        2.80615512       0.00000000      14.58243212        1       1.00000000       0.00000000       0.00000000       0.00000000       0.00000000       0.00000000       0.00000000
H        1.40307756       2.43020162      14.58243212        1       1.00000000       0.00000000       0.00000000       0.00000000       0.00000000       0.00000000       0.00000000
H        4.20923268       2.43020162      14.58243212        1       1.00000000       0.00000000       0.00000000       0.00000000       0.00000000       0.00000000       0.00000000
H        4.20924155       2.43022210       7.77171439        0       1.00000000       0.00000988       0.00000357       0.00000180      -0.00001885       0.00001843       0.00004811
H        1.40307142       0.81007738      16.81071451        0       1.00000000      -0.00002629      -0.00000021      -0.00000307       0.00000488       0.00001204      -0.00000304
H        0.00000926       0.00000741       7.77174213        0       1.00000000       0.00001990      -0.00001948      -0.00000014      -0.00000130      -0.00002773      -0.00002167
H        2.80917675       3.24029398      16.81070288        0       1.00000000       0.00001514      -0.00000377       0.00000298       0.00000414       0.00000397      -0.00001103
H        1.40308894       2.43020041       7.77172469        0       1.00000000      -0.00002093       0.00000539       0.00001064      -0.00001177      -0.00001627      -0.00000439
H        5.60925013       3.24028602      16.81071013        0       1.00000000      -0.00001126       0.00000013       0.00001645      -0.00000419      -0.00000327      -0.00000716
H        2.80615870       0.00000819       7.77171605        0       1.00000000      -0.00002107      -0.00001014      -0.00000047       0.00000784       0.00002293      -0.00000620
19
Lattice="5.612310241546866 0.0 0.0 0.0 4.860403243099165 0.0 0.0 0.0 24.582432123328676" Properties=species:S:1:pos:R:3:tags:I:1:masses:R:1:momenta:R:3:forces:R:3 KEmax=24.559391461069055 iter=77697 volume=670.5618179858607 ns_energy=-12.521060954775491 last_walked_iter_clone=77672 energy=-12.521060957258488 stress="0.023998751485664438 -1.600054791484096e-07 -2.6165178621354006e-07 -1.600054791484096e-07 0.024126718458878645 -1.3886975671494993e-07 -2.6165178621354006e-07 -1.3886975671494993e-07 0.012900640729825203" pbc="T T F"
H        1.40307756       0.81006721      10.00000000        3       1.00000000       0.00000000       0.00000000       0.00000000       0.00000000       0.00000000       0.00000000
H        4.20923268       0.81006721      10.00000000        3       1.00000000       0.00000000       0.00000000       0.00000000       0.00000000       0.00000000       0.00000000
H        0.00000000       3.24026883      10.00000000        3       1.00000000       0.00000000       0.00000000       0.00000000       0.00000000       0.00000000       0.00000000
H        2.80615512       3.24026883      10.00000000        3       1.00000000       0.00000000       0.00000000       0.00000000       0.00000000       0.00000000       0.00000000
H        0.00000000       1.62013441      12.29121606        2       1.00000000       0.00000000       0.00000000       0.00000000       0.00000000       0.00000000       0.00000000
H        2.80615512       1.62013441      12.29121606        2       1.00000000       0.00000000       0.00000000       0.00000000       0.00000000       0.00000000       0.00000000
H        1.40307756       4.05033604      12.29121606        2       1.00000000       0.00000000       0.00000000       0.00000000       0.00000000       0.00000000       0.00000000
H        4.20923268       4.05033604      12.29121606        2       1.00000000       0.00000000       0.00000000       0.00000000       0.00000000       0.00000000       0.00000000
H        0.00000000       0.00000000      14.58243212        1       1.00000000       0.00000000       0.00000000       0.00000000       0.00000000       0.00000000       0.00000000
H        2.80615512       0.00000000      14.58243212        1       1.00000000       0.00000000       0.00000000       0.00000000       0.00000000       0.00000000       0.00000000
H        1.40307756       2.43020162      14.58243212        1       1.00000000       0.00000000       0.00000000       0.00000000       0.00000000       0.00000000       0.00000000
H        4.20923268       2.43020162      14.58243212        1       1.00000000       0.00000000       0.00000000       0.00000000       0.00000000       0.00000000       0.00000000
H        4.20922243       2.43022297       7.77172196        0       1.00000000      -0.00001792      -0.00000237      -0.00001454      -0.00001885       0.00001843       0.00004811
H        1.40305843       0.81007148      16.81070722        0       1.00000000       0.00002644      -0.00000051      -0.00000604       0.00000488       0.00001204      -0.00000304
H       -0.00001962       0.00001132       7.77172643        0       1.00000000      -0.00001066      -0.00001270      -0.00000877      -0.00000130      -0.00002773      -0.00002167
H        2.80918085       3.24027305      16.81070092        0       1.00000000      -0.00000750      -0.00001029       0.00000621       0.00000414       0.00000397      -0.00001103
H        1.40306059       2.43020236       7.77172606        0       1.00000000      -0.00002584       0.00001345       0.00000183      -0.00001177      -0.00001627      -0.00000439
H        5.60927148       3.24028326      16.81072015        0       1.00000000       0.00001050      -0.00001426      -0.00001359      -0.00000419      -0.00000327      -0.00000716
H        2.80614260       0.00000782       7.77172139        0       1.00000000       0.00001696       0.00000474       0.00000457       0.00000784       0.00002293      -0.00000620
19
Lattice="5.612310241546866 0.0 0.0 0.0 4.860403243099165 0.0 0.0 0.0 24.582432123328676" Properties=species:S:1:pos:R:3:tags:I:1:masses:R:1:momenta:R:3:forces:R:3 KEmax=24.559391461069055 iter=77697 volume=670.5618179858607 ns_energy=-12.521060954794951 last_walked_iter_clone=77611 energy=-12.521060957258488 stress="0.023998751485664438 -1.600054791484096e-07 -2.6165178621354006e-07 -1.600054791484096e-07 0.024126718458878645 -1.3886975671494993e-07 -2.6165178621354006e-07 -1.3886975671494993e-07 0.012900640729825203" pbc="T T F"
H        1.40307756       0.81006721      10.00000000        3       1.00000000       0.00000000       0.00000000       0.00000000       0.00000000       0.00000000       0.00000000
H        4.20923268       0.81006721      10.00000000        3       1.00000000       0.00000000       0.00000000       0.00000000       0.00000000       0.00000000       0.00000000
H        0.00000000       3.24026883      10.00000000        3       1.00000000       0.00000000       0.00000000       0.00000000       0.00000000       0.00000000       0.00000000
H        2.80615512       3.24026883      10.00000000        3       1.00000000       0.00000000       0.00000000       0.00000000       0.00000000       0.00000000       0.00000000
H        0.00000000       1.62013441      12.29121606        2       1.00000000       0.00000000       0.00000000       0.00000000       0.00000000       0.00000000       0.00000000
H        2.80615512       1.62013441      12.29121606        2       1.00000000       0.00000000       0.00000000       0.00000000       0.00000000       0.00000000       0.00000000
H        1.40307756       4.05033604      12.29121606        2       1.00000000       0.00000000       0.00000000       0.00000000       0.00000000       0.00000000       0.00000000
H        4.20923268       4.05033604      12.29121606        2       1.00000000       0.00000000       0.00000000       0.00000000       0.00000000       0.00000000       0.00000000
H        0.00000000       0.00000000      14.58243212        1       1.00000000       0.00000000       0.00000000       0.00000000       0.00000000       0.00000000       0.00000000
H        2.80615512       0.00000000      14.58243212        1       1.00000000       0.00000000       0.00000000       0.00000000       0.00000000       0.00000000       0.00000000
H        1.40307756       2.43020162      14.58243212        1       1.00000000       0.00000000       0.00000000       0.00000000       0.00000000       0.00000000       0.00000000
H        4.20923268       2.43020162      14.58243212        1       1.00000000       0.00000000       0.00000000       0.00000000       0.00000000       0.00000000       0.00000000
H        4.20922856       2.43018701       7.77172282        0       1.00000000       0.00002927      -0.00000289      -0.00000468      -0.00001885       0.00001843       0.00004811
H        1.40307732       0.81007353      16.81070857        0       1.00000000      -0.00000511       0.00002755      -0.00001097       0.00000488       0.00001204      -0.00000304
H        5.61230690      -0.00001440       7.77172826        0       1.00000000       0.00000828      -0.00002894       0.00000112      -0.00000130      -0.00002773      -0.00002167
H        2.80919814       3.24026169      16.81070834        0       1.00000000      -0.00001297       0.00000523       0.00001144       0.00000414       0.00000397      -0.00001103
H        1.40307140       2.43018692       7.77172738        0       1.00000000      -0.00001731       0.00000218      -0.00000661      -0.00001177      -0.00001627      -0.00000439
H        5.60927908       3.24026339      16.81071700        0       1.00000000       0.00000028      -0.00001292       0.00003246      -0.00000419      -0.00000327      -0.00000716
H        2.80615323      -0.00000672       7.77172945        0       1.00000000       0.00000233      -0.00002393      -0.00001056       0.00000784       0.00002293      -0.00000620
19
Lattice="5.612310241546866 0.0 0.0 0.0 4.860403243099165 0.0 0.0 0.0 24.582432123328676" Properties=species:S:1:pos:R:3:tags:I:1:masses:R:1:momenta:R:3:forces:R:3 KEmax=24.559391461069055 iter=77697 volume=670.5618179858607 ns_energy=-12.521060954623929 last_walked_iter_clone=77641 energy=-12.521060957258488 stress="0.023998751485664438 -1.600054791484096e-07 -2.6165178621354006e-07 -1.600054791484096e-07 0.024126718458878645 -1.3886975671494993e-07 -2.6165178621354006e-07 -1.3886975671494993e-07 0.012900640729825203" pbc="T T F"
H        1.40307756       0.81006721      10.00000000        3       1.00000000       0.00000000       0.00000000       0.00000000       0.00000000       0.00000000       0.00000000
H        4.20923268       0.81006721      10.00000000        3       1.00000000       0.00000000       0.00000000       0.00000000       0.00000000       0.00000000       0.00000000
H        0.00000000       3.24026883      10.00000000        3       1.00000000       0.00000000       0.00000000       0.00000000       0.00000000       0.00000000       0.00000000
H        2.80615512       3.24026883      10.00000000        3       1.00000000       0.00000000       0.00000000       0.00000000       0.00000000       0.00000000       0.00000000
H        0.00000000       1.62013441      12.29121606        2       1.00000000       0.00000000       0.00000000       0.00000000       0.00000000       0.00000000       0.00000000
H        2.80615512       1.62013441      12.29121606        2       1.00000000       0.00000000       0.00000000       0.00000000       0.00000000       0.00000000       0.00000000
H        1.40307756       4.05033604      12.29121606        2       1.00000000       0.00000000       0.00000000       0.00000000       0.00000000       0.00000000       0.00000000
H        4.20923268       4.05033604      12.29121606        2       1.00000000       0.00000000       0.00000000       0.00000000       0.00000000       0.00000000       0.00000000
H        0.00000000       0.00000000      14.58243212        1       1.00000000       0.00000000       0.00000000       0.00000000       0.00000000       0.00000000       0.00000000
H        2.80615512       0.00000000      14.58243212        1       1.00000000       0.00000000       0.00000000       0.00000000       0.00000000       0.00000000       0.00000000
H        1.40307756       2.43020162      14.58243212        1       1.00000000       0.00000000       0.00000000       0.00000000       0.00000000       0.00000000       0.00000000
H        4.20923268       2.43020162      14.58243212        1       1.00000000       0.00000000       0.00000000       0.00000000       0.00000000       0.00000000       0.00000000
H        4.20923026       2.43020210       7.77173401        0       1.00000000       0.00000729      -0.00000583       0.00000729      -0.00001885       0.00001843       0.00004811
H        1.40308990       0.81007116      16.81070976        0       1.00000000      -0.00000258      -0.00000433      -0.00002150       0.00000488       0.00001204      -0.00000304
H       -0.00000326      -0.00000058       7.77171526        0       1.00000000      -0.00002717      -0.00001032       0.00000090      -0.00000130      -0.00002773      -0.00002167
H        2.80917727       3.24027765      16.81071612        0       1.00000000       0.00001238      -0.00000717      -0.00000618       0.00000414       0.00000397      -0.00001103
H        1.40306798       2.43020450       7.77172764        0       1.00000000      -0.00002683       0.00000269       0.00000369      -0.00001177      -0.00001627      -0.00000439
H        5.60926346       3.24028409      16.81072368        0       1.00000000      -0.00004072      -0.00000450       0.00000530      -0.00000419      -0.00000327      -0.00000716
H        2.80615288       0.00000186       7.77171540        0       1.00000000      -0.00000624      -0.00000807      -0.00001693       0.00000784       0.00002293      -0.00000620
19
Lattice="5.612310241546866 0.0 0.0 0.0 4.860403243099165 0.0 0.0 0.0 24.582432123328676" Properties=species:S:1:pos:R:3:tags:I:1:masses:R:1:momenta:R:3:forces:R:3 KEmax=24.559391461069055 iter=77697 volume=670.5618179858607 ns_energy=-12.521060954651029 last_walked_iter_clone=77500 energy=-12.521060957258488 stress="0.023998751485664438 -1.600054791484096e-07 -2.6165178621354006e-07 -1.600054791484096e-07 0.024126718458878645 -1.3886975671494993e-07 -2.6165178621354006e-07 -1.3886975671494993e-07 0.012900640729825203" pbc="T T F"
H        1.40307756       0.81006721      10.00000000        3       1.00000000       0.00000000       0.00000000       0.00000000       0.00000000       0.00000000       0.00000000
H        4.20923268       0.81006721      10.00000000        3       1.00000000       0.00000000       0.00000000       0.00000000       0.00000000       0.00000000       0.00000000
H        0.00000000       3.24026883      10.00000000        3       1.00000000       0.00000000       0.00000000       0.00000000       0.00000000       0.00000000       0.00000000
H        2.80615512       3.24026883      10.00000000        3       1.00000000       0.00000000       0.00000000       0.00000000       0.00000000       0.00000000       0.00000000
H        0.00000000       1.62013441      12.29121606        2       1.00000000       0.00000000       0.00000000       0.00000000       0.00000000       0.00000000       0.00000000
H        2.80615512       1.62013441      12.29121606        2       1.00000000       0.00000000       0.00000000       0.00000000       0.00000000       0.00000000       0.00000000
H        1.40307756       4.05033604      12.29121606        2       1.00000000       0.00000000       0.00000000       0.00000000       0.00000000       0.00000000       0.00000000
H        4.20923268       4.05033604      12.29121606        2       1.00000000       0.00000000       0.00000000       0.00000000       0.00000000       0.00000000       0.00000000