19
Lattice="5.612310241546866 0.0 0.0 0.0 4.860403243099165 0.0 0.0 0.0 24.582432123328676" Properties=species:S:1:pos:R:3:tags:I:1:masses:R:1:momenta:R:3:forces:R:3 KEmax=24.559391461069055 iter=119999 volume=670.5618179858607 ns_energy=-12.521060958428844 last_walked_iter_clone=119874 energy=-12.521060958432944 stress="0.023998781090994088 -6.5902899415607944e-09 -4.108092588067763e-09 -6.5902899415607944e-09 0.02412661396658088 9.002399397682665e-09 -4.108092588067763e-09 9.002399397682665e-09 0.012900317602997834" pbc="T T F"
H        1.40307756       0.81006721      10.00000000        3       1.00000000       0.00000000       0.00000000       0.00000000       0.00000000       0.00000000       0.00000000
H        4.20923268       0.81006721      10.00000000        3       1.00000000       0.00000000       0.00000000       0.00000000       0.00000000       0.00000000       0.00000000
H        0.00000000       3.24026883      10.00000000        3       1.00000000       0.00000000       0.00000000       0.00000000       0.00000000       0.00000000       0.00000000
H        2.80615512       3.24026883      10.00000000        3       1.00000000       0.00000000       0.00000000       0.00000000       0.00000000       0.00000000       0.00000000
H        0.00000000       1.62013441      12.29121606        2       1.00000000       0.00000000       0.00000000       0.00000000       0.00000000       0.00000000       0.00000000
H        2.80615512       1.62013441      12.29121606        2       1.00000000       0.00000000       0.00000000       0.00000000       0.00000000       0.00000000       0.00000000
H        1.40307756       4.05033604      12.29121606        2       1.00000000       0.00000000       0.00000000       0.00000000       0.00000000       0.00000000       0.00000000
H        4.20923268       4.05033604      12.29121606        2       1.00000000       0.00000000       0.00000000       0.00000000       0.00000000       0.00000000       0.00000000
H        0.00000000       0.00000000      14.58243212        1       1.00000000       0.00000000       0.00000000       0.00000000       0.00000000       0.00000000       0.00000000
H        2.80615512       0.00000000      14.58243212        1       1.00000000       0.00000000       0.00000000       0.00000000       0.00000000       0.00000000       0.00000000
H        1.40307756       2.43020162      14.58243212        1       1.00000000       0.00000000       0.00000000       0.00000000       0.00000000       0.00000000       0.00000000
H        4.20923268       2.43020162      14.58243212        1       1.00000000       0.00000000       0.00000000       0.00000000       0.00000000       0.00000000       0.00000000
H        4.20923262       2.43020161       7.77172685        0       1.00000000       0.00000019       0.00000001       0.00000007       0.00000031       0.00000011       0.00000071
H        1.40307664       0.81007542      16.81070499        0       1.00000000       0.00000135       0.00000044      -0.00000052       0.00000116       0.00000123       0.00000151
H       -0.00000042       4.86040326       7.77172733        0       1.00000000      -0.00000105       0.00000136      -0.00000070      -0.00000240       0.00000193      -0.00000030
H        2.80919739       3.24027833      16.81071114        0       1.00000000       0.00000201      -0.00000070      -0.00000090      -0.00000167      -0.00000069       0.00000054
H        1.40307772       2.43020193       7.77172684        0       1.00000000      -0.00000051       0.00000091      -0.00000051      -0.00000001      -0.00000000       0.00000105
H        5.60926856       3.24027909      16.81071154        0       1.00000000       0.00000018      -0.00000057      -0.00000012       0.00000017      -0.00000179       0.00000131
H        2.80615473       4.86040351       7.77172738        0       1.00000000       0.00000080      -0.00000014       0.00000028       0.00000130      -0.00000233       0.00000042
19
Lattice="5.612310241546866 0.0 0.0 0.0 4.860403243099165 0.0 0.0 0.0 24.582432123328676" Properties=species:S:1:pos:R:3:tags:I:1:masses:R:1:momenta:R:3:forces:R:3 KEmax=24.559391461069055 iter=119999 volume=670.5618179858607 ns_energy=-12.52106095842878 last_walked_iter_clone=118782 energy=-12.521060958432944 stress="0.023998781090994088 -6.5902899415607944e-09 -4.108092588067763e-09 -6.5902899415607944e-09 0.02412661396658088 9.002399397682665e-09 -4.108092588067763e-09 9.002399397682665e-09 0.012900317602997834" pbc="T T F"
H        1.40307756       0.81006721      10.00000000        3       1.00000000       0.00000000       0.00000000       0.00000000       0.00000000       0.00000000       0.00000000
H        4.20923268       0.81006721      10.00000000        3       1.00000000       0.00000000       0.00000000       0.00000000       0.00000000       0.00000000       0.00000000
H        0.00000000       3.24026883      10.00000000        3       1.00000000       0.00000000       0.00000000       0.00000000       0.00000000       0.00000000       0.00000000
H        2.80615512       3.24026883      10.00000000        3       1.00000000       0.00000000       0.00000000       0.00000000       0.00000000       0.00000000       0.00000000
H        0.00000000       1.62013441      12.29121606        2       1.00000000       0.00000000       0.00000000       0.00000000       0.00000000       0.00000000       0.00000000
H        2.80615512       1.62013441      12.29121606        2       1.00000000       0.00000000       0.00000000       0.00000000       0.00000000       0.00000000       0.00000000
H        1.40307756       4.05033604      12.29121606        2       1.00000000       0.00000000       0.00000000       0.00000000       0.00000000       0.00000000       0.00000000
H        4.20923268       4.05033604      12.29121606        2       1.00000000       0.00000000       0.00000000       0.00000000       0.00000000       0.00000000       0.00000000
H        0.00000000       0.00000000      14.58243212        1       1.00000000       0.00000000       0.00000000       0.00000000       0.00000000       0.00000000       0.00000000
H        2.80615512       0.00000000      14.58243212        1       1.00000000       0.00000000       0.00000000       0.00000000       0.00000000       0.00000000       0.00000000
H        1.40307756       2.43020162      14.58243212        1       1.00000000       0.00000000       0.00000000       0.00000000       0.00000000       0.00000000       0.00000000
H        4.20923268       2.43020162      14.58243212        1       1.00000000       0.00000000       0.00000000       0.00000000       0.00000000       0.00000000       0.00000000
H        4.20923252       2.43020116       7.77172774        0       1.00000000       0.00000075      -0.00000028      -0.00000144       0.00000031       0.00000011       0.00000071
H        1.40307823       0.81007508      16.81070534        0       1.00000000       0.00000071      -0.00000001       0.00000089       0.00000116       0.00000123       0.00000151
H       -0.00000034      -0.00000028       7.77172732        0       1.00000000       0.00000053       0.00000057      -0.00000153      -0.00000240       0.00000193      -0.00000030
H        2.80919815       3.24027824      16.81071116        0       1.00000000      -0.00000047       0.00000036      -0.00000065      -0.00000167      -0.00000069       0.00000054
H        1.40307685       2.43020148       7.77172679        0       1.00000000       0.00000048      -0.00000016      -0.00000052      -0.00000001      -0.00000000       0.00000105
H        5.60926844       3.24027933      16.81071145        0       1.00000000      -0.00000012       0.00000078      -0.00000065       0.00000017      -0.00000179       0.00000131
H        2.80615502      -0.00000048       7.77172727        0       1.00000000      -0.00000000       0.00000165       0.00000046       0.00000130      -0.00000233       0.00000042
19
Lattice="5.612310241546866 0.0 0.0 0.0 4.860403243099165 0.0 0.0 0.0 24.582432123328676" Properties=species:S:1:pos:R:3:tags:I:1:masses:R:1:momenta:R:3:forces:R:3 KEmax=24.559391461069055 iter=119999 volume=670.5618179858607 ns_energy=-12.521060958428789 last_walked_iter_clone=119530 energy=-12.521060958432944 stress="0.023998781090994088 -6.5902899415607944e-09 -4.108092588067763e-09 -6.5902899415607944e-09 0.02412661396658088 9.002399397682665e-09 -4.108092588067763e-09 9.002399397682665e-09 0.012900317602997834" pbc="T T F"
H        1.40307756       0.81006721      10.00000000        3       1.00000000       0.00000000       0.00000000       0.00000000       0.00000000       0.00000000       0.00000000
H        4.20923268       0.81006721      10.00000000        3       1.00000000       0.00000000       0.00000000       0.00000000       0.00000000       0.00000000       0.00000000
H        0.00000000       3.24026883      10.00000000        3       1.00000000       0.00000000       0.00000000       0.00000000       0.00000000       0.00000000       0.00000000
H        2.80615512       3.24026883      10.00000000        3       1.00000000       0.00000000       0.00000000       0.00000000       0.00000000       0.00000000       0.00000000
H        0.00000000       1.62013441      12.29121606        2       1.00000000       0.00000000       0.00000000       0.00000000       0.00000000       0.00000000       0.00000000
H        2.80615512       1.62013441      12.29121606        2       1.00000000       0.00000000       0.00000000       0.00000000       0.00000000       0.00000000       0.00000000
H        1.40307756       4.05033604      12.29121606        2       1.00000000       0.00000000       0.00000000       0.00000000       0.00000000       0.00000000       0.00000000
H        4.20923268       4.05033604      12.29121606        2       1.00000000       0.00000000       0.00000000       0.00000000       0.00000000       0.00000000       0.00000000
H        0.00000000       0.00000000      14.58243212        1       1.00000000       0.00000000       0.00000000       0.00000000       0.00000000       0.00000000       0.00000000
H        2.80615512       0.00000000      14.58243212        1       1.00000000       0.00000000       0.00000000       0.00000000       0.00000000       0.00000000       0.00000000
H        1.40307756       2.43020162      14.58243212        1       1.00000000       0.00000000       0.00000000       0.00000000       0.00000000       0.00000000       0.00000000
H        4.20923268       2.43020162      14.58243212        1       1.00000000       0.00000000       0.00000000       0.00000000       0.00000000       0.00000000       0.00000000
H        4.20923311       2.43020131       7.77172675        0       1.00000000       0.00000002      -0.00000045       0.00000058       0.00000031       0.00000011       0.00000071
H        1.40307635       0.81007522      16.81070454        0       1.00000000      -0.00000018      -0.00000016       0.00000057       0.00000116       0.00000123       0.00000151
H        0.00000161      -0.00000030       7.77172729        0       1.00000000      -0.00000109      -0.00000006      -0.00000063      -0.00000240       0.00000193      -0.00000030
H        2.80919709       3.24027858      16.81071126        0       1.00000000      -0.00000029      -0.00000096      -0.00000063      -0.00000167      -0.00000069       0.00000054
H        1.40307817       2.43020210       7.77172742        0       1.00000000      -0.00000011       0.00000050       0.00000022      -0.00000001      -0.00000000       0.00000105
H        5.60926830       3.24027856      16.81071214        0       1.00000000       0.00000067      -0.00000049       0.00000096       0.00000017      -0.00000179       0.00000131
H        2.80615648       0.00000032       7.77172662        0       1.00000000       0.00000053      -0.00000013      -0.00000023       0.00000130      -0.00000233       0.00000042
19
Lattice="5.612310241546866 0.0 0.0 0.0 4.860403243099165 0.0 0.0 0.0 24.582432123328676" Properties=species:S:1:pos:R:3:tags:I:1:masses:R:1:momenta:R:3:forces:R:3 KEmax=24.559391461069055 iter=119999 volume=670.5618179858607 ns_energy=-12.521060958428796 last_walked_iter_clone=119928 energy=-12.521060958432944 stress="0.023998781090994088 -6.5902899415607944e-09 -4.108092588067763e-09 -6.5902899415607944e-09 0.02412661396658088 9.002399397682665e-09 -4.108092588067763e-09 9.002399397682665e-09 0.012900317602997834" pbc="T T F"
H        1.40307756       0.81006721      10.00000000        3       1.00000000       0.00000000       0.00000000       0.00000000       0.00000000       0.00000000       0.00000000
H        4.20923268       0.81006721      10.00000000        3       1.00000000       0.00000000       0.00000000       0.00000000       0.00000000       0.00000000       0.00000000
H        0.00000000       3.24026883      10.00000000        3       1.00000000       0.00000000       0.00000000       0.00000000       0.00000000       0.00000000       0.00000000
H        2.80615512       3.24026883      10.00000000        3       1.00000000       0.00000000       0.00000000       0.00000000       0.00000000       0.00000000       0.00000000
H        0.00000000       1.62013441      12.29121606        2       1.00000000       0.00000000       0.00000000       0.00000000       0.00000000       0.00000000       0.00000000
H        2.80615512       1.62013441      12.29121606        2       1.00000000       0.00000000       0.00000000       0.00000000       0.00000000       0.00000000       0.00000000
H        1.40307756       4.05033604      12.29121606        2       1.00000000       0.00000000       0.00000000       0.00000000       0.00000000       0.00000000       0.00000000
H        4.20923268       4.05033604      12.29121606        2       1.00000000       0.00000000       0.00000000       0.00000000       0.00000000       0.00000000       0.00000000
H        0.00000000       0.00000000      14.58243212        1       1.00000000       0.00000000       0.00000000       0.00000000       0.00000000       0.00000000       0.00000000
H        2.80615512       0.00000000      14.58243212        1       1.00000000       0.00000000       0.00000000       0.00000000       0.00000000       0.00000000       0.00000000
H        1.40307756       2.43020162      14.58243212        1       1.00000000       0.00000000       0.00000000       0.00000000       0.00000000       0.00000000       0.00000000
H        4.20923268       2.43020162      14.58243212        1       1.00000000       0.00000000       0.00000000       0.00000000       0.00000000       0.00000000       0.00000000
H        4.20923186       2.43020063       7.77172701        0       1.00000000       0.00000085      -0.00000062       0.00000007       0.00000031       0.00000011       0.00000071
H        1.40307854       0.81007477      16.81070498        0       1.00000000      -0.00000000       0.00000116       0.00000000       0.00000116       0.00000123       0.00000151
H       -0.00000035      -0.00000073       7.77172726        0       1.00000000      -0.00000097       0.00000034       0.00000037      -0.00000240       0.00000193      -0.00000030
H        2.80919731       3.24027789      16.81071172        0       1.00000000       0.00000051       0.00000110       0.00000004      -0.00000167      -0.00000069       0.00000054
H        1.40307607       2.43020125       7.77172646        0       1.00000000      -0.00000009      -0.00000084       0.00000048      -0.00000001      -0.00000000       0.00000105
H        5.60926814       3.24027804      16.81071058        0       1.00000000      -0.00000124      -0.00000068      -0.00000024       0.00000017      -0.00000179       0.00000131
H        2.80615464      -0.00000044       7.77172707        0       1.00000000      -0.00000060       0.00000014       0.00000017       0.00000130      -0.00000233       0.00000042
19
Lattice="5.612310241546866 0.0 0.0 0.0 4.860403243099165 0.0 0.0 0.0 24.582432123328676" Properties=species:S:1:pos:R:3:tags:I:1:masses:R:1:momenta:R:3:forces:R:3 KEmax=24.559391461069055 iter=119999 volume=670.5618179858607 ns_energy=-12.521060958427741 last_walked_iter_clone=119999 energy=-12.521060958432944 stress="0.023998781090994088 -6.5902899415607944e-09 -4.108092588067763e-09 -6.5902899415607944e-09 0.02412661396658088 9.002399397682665e-09 -4.108092588067763e-09 9.002399397682665e-09 0.012900317602997834" pbc="T T F"
H        1.40307756       0.81006721      10.00000000        3       1.00000000       0.00000000       0.00000000       0.00000000       0.00000000       0.00000000       0.00000000
H        4.20923268       0.81006721      10.00000000        3       1.00000000       0.00000000       0.00000000       0.00000000       0.00000000       0.00000000       0.00000000
H        0.00000000       3.24026883      10.00000000        3       1.00000000       0.00000000       0.00000000       0.00000000       0.00000000       0.00000000       0.00000000
H        2.80615512       3.24026883      10.00000000        3       1.00000000       0.00000000       0.00000000       0.00000000       0.00000000       0.00000000       0.00000000
H        0.00000000       1.62013441      12.29121606        2       1.00000000       0.00000000       0.00000000       0.00000000       0.00000000       0.00000000       0.00000000
H        2.80615512       1.62013441      12.29121606        2       1.00000000       0.00000000       0.00000000       0.00000000       0.00000000       0.00000000       0.00000000
H        1.40307756       4.05033604      12.29121606        2       1.00000000       0.00000000       0.00000000       0.00000000       0.00000000       0.00000000       0.00000000
H        4.20923268       4.05033604      12.29121606        2       1.00000000       0.00000000       0.00000000       0.00000000       0.00000000       0.00000000       0.00000000
H        0.00000000       0.00000000      14.58243212        1       1.00000000       0.00000000       0.00000000       0.00000000       0.00000000       0.00000000       0.00000000
H        2.80615512       0.00000000      14.58243212        1       1.00000000       0.00000000       0.00000000       0.00000000       0.00000000       0.00000000       0.00000000
H        1.40307756       2.43020162      14.58243212        1       1.00000000       0.00000000       0.00000000       0.00000000       0.00000000       0.00000000       0.00000000
H        4.20923268       2.43020162      14.58243212        1       1.00000000       0.00000000       0.00000000       0.00000000       0.00000000       0.00000000       0.00000000
H        4.20923326       2.43020200       7.77172685        0       1.00000000      -0.00000092       0.00000092      -0.00000017       0.00000031       0.00000011       0.00000071
H        1.40307816       0.81007500      16.81070519        0       1.00000000       0.00000072      -0.00000038      -0.00000004       0.00000116       0.00000123       0.00000151
H        5.61231103      -0.00000005       7.77172725        0       1.00000000      -0.00000006       0.00000062      -0.00000033      -0.00000240       0.00000193      -0.00000030
H        2.80919746       3.24027808      16.81071172        0       1.00000000      -0.00000001       0.00000027      -0.00000009      -0.00000167      -0.00000069       0.00000054
H        1.40307801       2.43020183       7.77172686        0       1.00000000      -0.00000015       0.00000051       0.00000040      -0.00000001      -0.00000000       0.00000105
H        5.60926846       3.24027825      16.81071216        0       1.00000000       0.00000096       0.00000027       0.00000078       0.00000017      -0.00000179       0.00000131
H        2.80615630       4.86040313       7.77172681        0       1.00000000      -0.00000289      -0.00000004      -0.00000021       0.00000130      -0.00000233       0.00000042
19
Lattice="5.612310241546866 0.0 0.0 0.0 4.860403243099165 0.0 0.0 0.0 24.582432123328676" Properties=species:S:1:pos:R:3:tags:I:1:masses:R:1:momenta:R:3:forces:R:3 KEmax=24.559391461069055 iter=119999 volume=670.5618179858607 ns_energy=-12.52106095842904 last_walked_iter_clone=119318 energy=-12.521060958432944 stress="0.023998781090994088 -6.5902899415607944e-09 -4.108092588067763e-09 -6.5902899415607944e-09 0.02412661396658088 9.002399397682665e-09 -4.108092588067763e-09 9.002399397682665e-09 0.012900317602997834" pbc="T T F"
H        1.40307756       0.81006721      10.00000000        3       1.00000000       0.00000000       0.00000000       0.00000000       0.00000000       0.00000000       0.00000000
H        4.20923268       0.81006721      10.00000000        3       1.00000000       0.00000000       0.00000000       0.00000000       0.00000000       0.00000000       0.00000000
H        0.00000000       3.24026883      10.00000000        3       1.00000000       0.00000000       0.00000000       0.00000000       0.00000000       0.00000000       0.00000000
H        2.80615512       3.24026883      10.00000000        3       1.00000000       0.00000000       0.00000000       0.00000000       0.00000000       0.00000000       0.00000000
H        0.00000000       1.62013441      12.29121606        2       1.00000000       0.00000000       0.00000000       0.00000000       0.00000000       0.00000000       0.00000000
H        2.80615512       1.62013441      12.29121606        2       1.00000000       0.00000000       0.00000000       0.00000000       0.00000000       0.00000000       0.00000000
H        1.40307756       4.05033604      12.29121606        2       1.00000000       0.00000000       0.00000000       0.00000000       0.00000000       0.00000000       0.00000000
H        4.20923268       4.05033604      12.29121606        2       1.00000000       0.00000000       0.00000000       0.00000000       0.00000000       0.00000000       0.00000000
H        0.00000000       0.00000000      14.58243212        1       1.00000000       0.00000000       0.00000000       0.00000000       0.00000000       0.00000000       0.00000000
H        2.80615512       0.00000000      14.58243212        1       1.00000000       0.00000000       0.00000000       0.00000000       0.00000000       0.00000000       0.00000000
H        1.40307756       2.43020162      14.58243212        1       1.00000000       0.00000000       0.00000000       0.00000000       0.00000000       0.00000000       0.00000000
H        4.20923268       2.43020162      14.58243212        1       1.00000000       0.00000000       0.00000000       0.00000000       0.00000000       0.00000000       0.00000000
H        4.20923323       2.43020161       7.77172728        0       1.00000000      -0.00000007      -0.00000053       0.00000104       0.00000031       0.00000011       0.00000071
H        1.40307704       0.81007580      16.81070423        0       1.00000000      -0.00000045      -0.00000054      -0.00000214       0.00000116       0.00000123       0.00000151
H        0.00000007       0.00000030       7.77172758        0       1.00000000      -0.00000074      -0.00000052       0.00000037      -0.00000240       0.00000193      -0.00000030
H        2.80919707       3.24027910      16.81071051        0       1.00000000      -0.00000014      -0.00000014      -0.00000017      -0.00000167      -0.00000069       0.00000054
H        1.40307805       2.43020189       7.77172685        0       1.00000000      -0.00000069       0.00000115      -0.00000056      -0.00000001      -0.00000000       0.00000105
H        5.60926759       3.24027873      16.81071146        0       1.00000000      -0.00000041       0.00000011       0.00000085       0.00000017      -0.00000179       0.00000131
H        2.80615542       0.00000003       7.77172715        0       1.00000000       0.00000068      -0.00000072       0.00000070       0.00000130      -0.00000233       0.00000042
19
Lattice="5.612310241546866 0.0 0.0 0.0 4.860403243099165 0.0 0.0 0.0 24.582432123328676" Properties=species:S:1:pos:R:3:tags:I:1:masses:R:1:momenta:R:3:forces:R:3 KEmax=24.559391461069055 iter=119999 volume=670.5618179858607 ns_energy=-12.521060958428889 last_walked_iter_clone=119034 energy=-12.521060958432944 stress="0.023998781090994088 -6.5902899415607944e-09 -4.108092588067763e-09 -6.5902899415607944e-09 0.02412661396658088 9.002399397682665e-09 -4.108092588067763e-09 9.002399397682665e-09 0.012900317602997834" pbc="T T F"
H        1.40307756       0.81006721      10.00000000        3       1.00000000       0.00000000       0.00000000       0.00000000       0.00000000       0.00000000       0.00000000
H        4.20923268       0.81006721      10.00000000        3       1.00000000       0.00000000       0.00000000       0.00000000       0.00000000       0.00000000       0.00000000
H        0.00000000       3.24026883      10.00000000        3       1.00000000       0.00000000       0.00000000       0.00000000       0.00000000       0.00000000       0.00000000
H        2.80615512       3.24026883      10.00000000        3       1.00000000       0.00000000       0.00000000       0.00000000       0.00000000       0.00000000       0.00000000
H        0.00000000       1.62013441      12.29121606        2       1.00000000       0.00000000       0.00000000       0.00000000       0.00000000       0.00000000       0.00000000
H        2.80615512       1.62013441      12.29121606        2       1.00000000       0.00000000       0.00000000       0.00000000       0.00000000       0.00000000       0.00000000
H        1.40307756       4.05033604      12.29121606        2       1.00000000       0.00000000       0.00000000       0.00000000       0.00000000       0.00000000       0.00000000
H        4.20923268       4.05033604      12.29121606        2       1.00000000       0.00000000       0.00000000       0.00000000       0.00000000       0.00000000       0.00000000
H        0.00000000       0.00000000      14.58243212        1       1.00000000       0.00000000       0.00000000       0.00000000       0.00000000       0.00000000       0.00000000
H        2.80615512       0.00000000      14.58243212        1       1.00000000       0.00000000       0.00000000       0.00000000       0.00000000       0.00000000       0.00000000
H        1.40307756       2.43020162      14.58243212        1       1.00000000       0.00000000       0.00000000       0.00000000       0.00000000       0.00000000       0.00000000
H        4.20923268       2.43020162      14.58243212        1       1.00000000       0.00000000       0.00000000       0.00000000       0.00000000       0.00000000       0.00000000
H        4.20923219       2.43020168       7.77172692        0       1.00000000      -0.00000127       0.00000057      -0.00000001       0.00000031       0.00000011       0.00000071
H        1.40307699       0.81007496      16.81070440        0       1.00000000       0.00000011       0.00000191      -0.00000042       0.00000116       0.00000123       0.00000151
H       -0.00000012      -0.00000012       7.77172720        0       1.00000000       0.00000030      -0.00000073      -0.00000096      -0.00000240       0.00000193      -0.00000030
H        2.80919677       3.24027811      16.81071102        0       1.00000000       0.00000001      -0.00000062       0.00000022      -0.00000167      -0.00000069       0.00000054
H        1.40307687       2.43020175       7.77172658        0       1.00000000       0.00000057       0.00000012       0.00000070      -0.00000001      -0.00000000       0.00000105
H        5.60926794       3.24027740      16.81071069        0       1.00000000      -0.00000054      -0.00000044       0.00000041       0.00000017      -0.00000179       0.00000131
H        2.80615480      -0.00000040       7.77172677        0       1.00000000       0.00000058       0.00000095      -0.00000087       0.00000130      -0.00000233       0.00000042
19
Lattice="5.612310241546866 0.0 0.0 0.0 4.860403243099165 0.0 0.0 0.0 24.582432123328676" Properties=species:S:1:pos:R:3:tags:I:1:masses:R:1:momenta:R:3:forces:R:3 KEmax=24.559391461069055 iter=119999 volume=670.5618179858607 ns_energy=-12.521060958429079 last_walked_iter_clone=119047 energy=-12.521060958432944 stress="0.023998781090994088 -6.5902899415607944e-09 -4.108092588067763e-09 -6.5902899415607944e-09 0.02412661396658088 9.002399397682665e-09 -4.108092588067763e-09 9.002399397682665e-09 0.012900317602997834" pbc="T T F"
H        1.40307756       0.81006721      10.00000000        3       1.00000000       0.00000000       0.00000000       0.00000000       0.00000000       0.00000000       0.00000000
H        4.20923268       0.81006721      10.00000000        3       1.00000000       0.00000000       0.00000000       0.00000000       0.00000000       0.00000000       0.00000000
H        0.00000000       3.24026883      10.00000000        3       1.00000000       0.00000000       0.00000000       0.00000000       0.00000000       0.00000000       0.00000000
H        2.80615512       3.24026883      10.00000000        3       1.00000000       0.00000000       0.00000000       0.00000000       0.00000000       0.00000000       0.00000000
H        0.00000000       1.62013441      12.29121606        2       1.00000000       0.00000000       0.00000000       0.00000000       0.00000000       0.00000000       0.00000000
H        2.80615512       1.62013441      12.29121606        2       1.00000000       0.00000000       0.00000000       0.00000000       0.00000000       0.00000000       0.00000000
H        1.40307756       4.05033604      12.29121606        2       1.00000000       0.00000000       0.00000000       0.00000000       0.00000000       0.00000000       0.00000000
H        4.20923268       4.05033604      12.29121606        2       1.00000000       0.00000000       0.00000000       0.00000000       0.00000000       0.00000000       0.00000000