19
Lattice="5.612310241546866 0.0 0.0 0.0 4.860403243099165 0.0 0.0 0.0 24.582432123328676" Properties=species:S:1:pos:R:3:tags:I:1:masses:R:1:momenta:R:3 KEmax=24.559391461069055 iter=99 volume=670.5618179858607 ns_energy=145.54193969631376 last_walked_iter_clone=42 ns_P=0.0 config_n_global=99 ns_KE=20.480654828399338 pbc="T T F"
H        1.40307756       0.81006721      10.00000000        3       1.00000000       0.00000000       0.00000000       0.00000000
H        4.20923268       0.81006721      10.00000000        3       1.00000000       0.00000000       0.00000000       0.00000000
H        0.00000000       3.24026883      10.00000000        3       1.00000000       0.00000000       0.00000000       0.00000000
H        2.80615512       3.24026883      10.00000000        3       1.00000000       0.00000000       0.00000000       0.00000000
H        0.00000000       1.62013441      12.29121606        2       1.00000000       0.00000000       0.00000000       0.00000000
H        2.80615512       1.62013441      12.29121606        2       1.00000000       0.00000000       0.00000000       0.00000000
H        1.40307756       4.05033604      12.29121606        2       1.00000000       0.00000000       0.00000000       0.00000000
H        4.20923268       4.05033604      12.29121606        2       1.00000000       0.00000000       0.00000000       0.00000000
H        0.00000000       0.00000000      14.58243212        1       1.00000000       0.00000000       0.00000000       0.00000000
H        2.80615512       0.00000000      14.58243212        1       1.00000000       0.00000000       0.00000000       0.00000000
H        1.40307756       2.43020162      14.58243212        1       1.00000000       0.00000000       0.00000000       0.00000000
H        4.20923268       2.43020162      14.58243212        1       1.00000000       0.00000000       0.00000000       0.00000000
H        1.16173721       3.64220645       4.18256804        0       1.00000000      -2.40551655      -2.19569555      -0.16770768
H        4.06284503       3.25714476      20.22549093        0       1.00000000      -0.41220241      -1.41079846      -2.04323539
H        1.12992747       0.20821939       4.74509737        0       1.00000000      -0.40880225      -1.78014877       0.10590656
H        3.17922011       0.87897109      16.73659233        0       1.00000000       1.02625632       0.42172362       0.19180701
H        3.82045928       0.23141747       2.15730311        0       1.00000000       0.80965846       0.28326460      -2.07144297
H        1.79686941       4.09258249      20.29044472        0       1.00000000      -1.08552783      -0.45545073       2.13942076
H        4.27936734       2.89465061       4.26011305        0       1.00000000       0.91357422       1.06180536      -2.53451687
19
Lattice="5.612310241546866 0.0 0.0 0.0 4.860403243099165 0.0 0.0 0.0 24.582432123328676" Properties=species:S:1:pos:R:3:tags:I:1:masses:R:1:momenta:R:3 KEmax=24.559391461069055 iter=199 volume=670.5618179858607 ns_energy=16.730849974321117 last_walked_iter_clone=110 ns_P=0.0 config_n_global=199 ns_KE=22.786505938225154 pbc="T T F"
H        1.40307756       0.81006721      10.00000000        3       1.00000000       0.00000000       0.00000000       0.00000000
H        4.20923268       0.81006721      10.00000000        3       1.00000000       0.00000000       0.00000000       0.00000000
H        0.00000000       3.24026883      10.00000000        3       1.00000000       0.00000000       0.00000000       0.00000000
H        2.80615512       3.24026883      10.00000000        3       1.00000000       0.00000000       0.00000000       0.00000000
H        0.00000000       1.62013441      12.29121606        2       1.00000000       0.00000000       0.00000000       0.00000000
H        2.80615512       1.62013441      12.29121606        2       1.00000000       0.00000000       0.00000000       0.00000000
H        1.40307756       4.05033604      12.29121606        2       1.00000000       0.00000000       0.00000000       0.00000000
H        4.20923268       4.05033604      12.29121606        2       1.00000000       0.00000000       0.00000000       0.00000000
H        0.00000000       0.00000000      14.58243212        1       1.00000000       0.00000000       0.00000000       0.00000000
H        2.80615512       0.00000000      14.58243212        1       1.00000000       0.00000000       0.00000000       0.00000000
H        1.40307756       2.43020162      14.58243212        1       1.00000000       0.00000000       0.00000000       0.00000000
H        4.20923268       2.43020162      14.58243212        1       1.00000000       0.00000000       0.00000000       0.00000000
H        0.93932667       4.67701595       2.19608311        0       1.00000000       2.16472829      -1.82244931      -0.61711331
H        0.31119715       4.18982055      18.09282930        0       1.00000000      -0.09504654       1.46640039       0.88734585
H        0.07145691       3.35988392       5.68420051        0       1.00000000      -0.10943547      -2.90364883      -0.63832577
H        2.38450715       4.75371921      17.13785809        0       1.00000000      -0.91289990      -2.20000330      -0.57940206
H        0.21787708       0.58817965       5.64465850        0       1.00000000      -1.62630199       0.19180311      -0.07536247
H        0.39569344       2.28153083      21.44706369        0       1.00000000       1.86142404       2.82174330       0.85202055
H        5.52913568       2.04534668       7.65731806        0       1.00000000      -0.95878040       0.52842551       1.82741709
19
Lattice="5.612310241546866 0.0 0.0 0.0 4.860403243099165 0.0 0.0 0.0 24.582432123328676" Properties=species:S:1:pos:R:3:tags:I:1:masses:R:1:momenta:R:3 KEmax=24.559391461069055 iter=299 volume=670.5618179858607 ns_energy=14.200961063718783 last_walked_iter_clone=242 ns_P=0.0 config_n_global=299 ns_KE=22.5772278450935 pbc="T T F"
H        1.40307756       0.81006721      10.00000000        3       1.00000000       0.00000000       0.00000000       0.00000000
H        4.20923268       0.81006721      10.00000000        3       1.00000000       0.00000000       0.00000000       0.00000000
H        0.00000000       3.24026883      10.00000000        3       1.00000000       0.00000000       0.00000000       0.00000000
H        2.80615512       3.24026883      10.00000000        3       1.00000000       0.00000000       0.00000000       0.00000000
H        0.00000000       1.62013441      12.29121606        2       1.00000000       0.00000000       0.00000000       0.00000000
H        2.80615512       1.62013441      12.29121606        2       1.00000000       0.00000000       0.00000000       0.00000000
H        1.40307756       4.05033604      12.29121606        2       1.00000000       0.00000000       0.00000000       0.00000000
H        4.20923268       4.05033604      12.29121606        2       1.00000000       0.00000000       0.00000000       0.00000000
H        0.00000000       0.00000000      14.58243212        1       1.00000000       0.00000000       0.00000000       0.00000000
H        2.80615512       0.00000000      14.58243212        1       1.00000000       0.00000000       0.00000000       0.00000000
H        1.40307756       2.43020162      14.58243212        1       1.00000000       0.00000000       0.00000000       0.00000000
H        4.20923268       2.43020162      14.58243212        1       1.00000000       0.00000000       0.00000000       0.00000000
H        1.53556209       2.50151941       1.48464441        0       1.00000000       0.35318227       1.55851904      -0.10062715
H        0.70141501       2.69775803      22.20469573        0       1.00000000       0.00755059       1.42689456      -0.19940255
H        2.55104890       2.34927171       3.95001940        0       1.00000000       0.50606630      -1.51061293      -1.62200098
H        4.64868593       0.44614007      17.75069758        0       1.00000000       2.80770925       0.81096050       2.07553943
H        4.84056378       4.65839576       0.00893853        0       1.00000000       1.55414412      -0.47589239       0.21895189
H        4.01469852       4.81591640      22.17175601        0       1.00000000      -0.69375360       2.01011497      -0.09329425
H        4.81675135       0.59665935       2.87154538        0       1.00000000      -0.00144453      -3.90805621       0.06186606
19
Lattice="5.612310241546866 0.0 0.0 0.0 4.860403243099165 0.0 0.0 0.0 24.582432123328676" Properties=species:S:1:pos:R:3:tags:I:1:masses:R:1:momenta:R:3 KEmax=24.559391461069055 iter=399 volume=670.5618179858607 ns_energy=12.44009938540276 last_walked_iter_clone=339 ns_P=0.0 config_n_global=399 ns_KE=18.050427297015208 pbc="T T F"
H        1.40307756       0.81006721      10.00000000        3       1.00000000       0.00000000       0.00000000       0.00000000
H        4.20923268       0.81006721      10.00000000        3       1.00000000       0.00000000       0.00000000       0.00000000
H        0.00000000       3.24026883      10.00000000        3       1.00000000       0.00000000       0.00000000       0.00000000
H        2.80615512       3.24026883      10.00000000        3       1.00000000       0.00000000       0.00000000       0.00000000
H        0.00000000       1.62013441      12.29121606        2       1.00000000       0.00000000       0.00000000       0.00000000
H        2.80615512       1.62013441      12.29121606        2       1.00000000       0.00000000       0.00000000       0.00000000
H        1.40307756       4.05033604      12.29121606        2       1.00000000       0.00000000       0.00000000       0.00000000
H        4.20923268       4.05033604      12.29121606        2       1.00000000       0.00000000       0.00000000       0.00000000
H        0.00000000       0.00000000      14.58243212        1       1.00000000       0.00000000       0.00000000       0.00000000
H        2.80615512       0.00000000      14.58243212        1       1.00000000       0.00000000       0.00000000       0.00000000
H        1.40307756       2.43020162      14.58243212        1       1.00000000       0.00000000       0.00000000       0.00000000
H        4.20923268       2.43020162      14.58243212        1       1.00000000       0.00000000       0.00000000       0.00000000
H        0.24547058       2.19323506       6.14772152        0       1.00000000      -0.69444424       1.19833996      -0.64650424
H        2.79229458       2.26551746      21.37057374        0       1.00000000      -1.51976861       1.92530693      -0.80245019
H        0.65161082       0.88682136       7.78105926        0       1.00000000       1.42173379      -1.36355298       0.29820262
H        0.50741738       1.45645097      18.82980223        0       1.00000000      -2.76252740       1.69237170       0.11150391
H        2.03542044       0.81822152       3.85076917        0       1.00000000      -0.57179254      -0.28248041      -0.85427605
H        1.55462426       4.10441704      21.43955383        0       1.00000000       0.68826770       0.15958083      -0.02065644
H        0.46453019       2.84127682       2.19136579        0       1.00000000       3.16330985      -0.26431681       0.95604252
19
Lattice="5.612310241546866 0.0 0.0 0.0 4.860403243099165 0.0 0.0 0.0 24.582432123328676" Properties=species:S:1:pos:R:3:tags:I:1:masses:R:1:momenta:R:3 KEmax=24.559391461069055 iter=499 volume=670.5618179858607 ns_energy=10.965893324550692 last_walked_iter_clone=302 ns_P=0.0 config_n_global=499 ns_KE=19.113736852426364 pbc="T T F"
H        1.40307756       0.81006721      10.00000000        3       1.00000000       0.00000000       0.00000000       0.00000000
H        4.20923268       0.81006721      10.00000000        3       1.00000000       0.00000000       0.00000000       0.00000000
H        0.00000000       3.24026883      10.00000000        3       1.00000000       0.00000000       0.00000000       0.00000000
H        2.80615512       3.24026883      10.00000000        3       1.00000000       0.00000000       0.00000000       0.00000000
H        0.00000000       1.62013441      12.29121606        2       1.00000000       0.00000000       0.00000000       0.00000000
H        2.80615512       1.62013441      12.29121606        2       1.00000000       0.00000000       0.00000000       0.00000000
H        1.40307756       4.05033604      12.29121606        2       1.00000000       0.00000000       0.00000000       0.00000000
H        4.20923268       4.05033604      12.29121606        2       1.00000000       0.00000000       0.00000000       0.00000000
H        0.00000000       0.00000000      14.58243212        1       1.00000000       0.00000000       0.00000000       0.00000000
H        2.80615512       0.00000000      14.58243212        1       1.00000000       0.00000000       0.00000000       0.00000000
H        1.40307756       2.43020162      14.58243212        1       1.00000000       0.00000000       0.00000000       0.00000000
H        4.20923268       2.43020162      14.58243212        1       1.00000000       0.00000000       0.00000000       0.00000000
H        0.29840626       4.34093963       5.32830019        0       1.00000000      -0.01585418      -0.01298175      -0.89805557
H        3.22694187       2.99423083      23.52298725        0       1.00000000       1.64046562       1.67637845       2.80655071
H        0.10262972       4.52597247       0.46314350        0       1.00000000      -1.51227855      -0.28159296      -0.26860092
H        1.06494698       1.40038440      19.17647854        0       1.00000000      -2.14133914      -0.48513506       1.26401196
H        2.45051313       4.77632624       3.89232894        0       1.00000000       1.04688640       0.45093452       1.83261163
H        2.20058426       3.99124498      19.59216942        0       1.00000000       1.14767780       2.39538660       0.40755004
H        4.96249149       4.24218850       2.82979333        0       1.00000000       0.76083671       1.43434249      -0.81882860
19
Lattice="5.612310241546866 0.0 0.0 0.0 4.860403243099165 0.0 0.0 0.0 24.582432123328676" Properties=species:S:1:pos:R:3:tags:I:1:masses:R:1:momenta:R:3 KEmax=24.559391461069055 iter=599 volume=670.5618179858607 ns_energy=9.570469208103018 last_walked_iter_clone=412 ns_P=0.0 config_n_global=599 ns_KE=17.703332823003564 pbc="T T F"
H        1.40307756       0.81006721      10.00000000        3       1.00000000       0.00000000       0.00000000       0.00000000
H        4.20923268       0.81006721      10.00000000        3       1.00000000       0.00000000       0.00000000       0.00000000
H        0.00000000       3.24026883      10.00000000        3       1.00000000       0.00000000       0.00000000       0.00000000
H        2.80615512       3.24026883      10.00000000        3       1.00000000       0.00000000       0.00000000       0.00000000
H        0.00000000       1.62013441      12.29121606        2       1.00000000       0.00000000       0.00000000       0.00000000
H        2.80615512       1.62013441      12.29121606        2       1.00000000       0.00000000       0.00000000       0.00000000
H        1.40307756       4.05033604      12.29121606        2       1.00000000       0.00000000       0.00000000       0.00000000
H        4.20923268       4.05033604      12.29121606        2       1.00000000       0.00000000       0.00000000       0.00000000
H        0.00000000       0.00000000      14.58243212        1       1.00000000       0.00000000       0.00000000       0.00000000
H        2.80615512       0.00000000      14.58243212        1       1.00000000       0.00000000       0.00000000       0.00000000
H        1.40307756       2.43020162      14.58243212        1       1.00000000       0.00000000       0.00000000       0.00000000
H        4.20923268       2.43020162      14.58243212        1       1.00000000       0.00000000       0.00000000       0.00000000
H        1.14654197       2.27683408       5.77850975        0       1.00000000      -1.30577593      -0.35665556       0.23536786
H        3.56592333       2.54563426      23.50154578        0       1.00000000      -1.11666920      -1.44358050      -0.87192011
H        3.08930134       3.53242606       1.53728033        0       1.00000000      -0.77964463      -1.46592502       0.60570749
H        1.09615018       4.85197697      19.51160319        0       1.00000000      -0.95914810       0.72167473      -1.75740268
H        5.02998912       1.57286266       7.45627525        0       1.00000000      -1.49941002      -0.21053269      -2.40886960
H        2.49958600       2.43111295      16.93943533        0       1.00000000      -0.29725297       1.40732501      -0.49911450
H        2.21784291       0.46796576       6.59164796        0       1.00000000       2.18159126       2.00351843       1.60882412
19
Lattice="5.612310241546866 0.0 0.0 0.0 4.860403243099165 0.0 0.0 0.0 24.582432123328676" Properties=species:S:1:pos:R:3:tags:I:1:masses:R:1:momenta:R:3 KEmax=24.559391461069055 iter=699 volume=670.5618179858607 ns_energy=8.442433823058215 last_walked_iter_clone=579 ns_P=0.0 config_n_global=699 ns_KE=16.40428070209481 pbc="T T F"
H        1.40307756       0.81006721      10.00000000        3       1.00000000       0.00000000       0.00000000       0.00000000
H        4.20923268       0.81006721      10.00000000        3       1.00000000       0.00000000       0.00000000       0.00000000
H        0.00000000       3.24026883      10.00000000        3       1.00000000       0.00000000       0.00000000       0.00000000
H        2.80615512       3.24026883      10.00000000        3       1.00000000       0.00000000       0.00000000       0.00000000
H        0.00000000       1.62013441      12.29121606        2       1.00000000       0.00000000       0.00000000       0.00000000
H        2.80615512       1.62013441      12.29121606        2       1.00000000       0.00000000       0.00000000       0.00000000
H        1.40307756       4.05033604      12.29121606        2       1.00000000       0.00000000       0.00000000       0.00000000
H        4.20923268       4.05033604      12.29121606        2       1.00000000       0.00000000       0.00000000       0.00000000
H        0.00000000       0.00000000      14.58243212        1       1.00000000       0.00000000       0.00000000       0.00000000
H        2.80615512       0.00000000      14.58243212        1       1.00000000       0.00000000       0.00000000       0.00000000
H        1.40307756       2.43020162      14.58243212        1       1.00000000       0.00000000       0.00000000       0.00000000
H        4.20923268       2.43020162      14.58243212        1       1.00000000       0.00000000       0.00000000       0.00000000
H        3.15159953       2.97773168       5.77947434        0       1.00000000      -0.47565971       0.62835517      -2.40824344
H        3.74873546       3.92024794      22.93570453        0       1.00000000      -0.48729504      -0.06059186       1.59603914
H        3.46799115       2.72618379       2.29359048        0       1.00000000      -1.26617170      -1.24548552       0.69402890
H        1.90439019       1.14293470      21.08348915        0       1.00000000      -0.73018027      -2.43248584       1.03958048
H        1.92912088       1.68291539       4.01182947        0       1.00000000      -1.51965353       2.20012146       1.01149741
H        0.58691279       4.30008732      19.86223878        0       1.00000000      -0.89539021      -0.82922265       0.25758118
H        5.50545325       4.59510134       0.75842079        0       1.00000000       0.26824830       0.91489804      -1.33966743
19
Lattice="5.612310241546866 0.0 0.0 0.0 4.860403243099165 0.0 0.0 0.0 24.582432123328676" Properties=species:S:1:pos:R:3:tags:I:1:masses:R:1:momenta:R:3 KEmax=24.559391461069055 iter=799 volume=670.5618179858607 ns_energy=7.278471740793059 last_walked_iter_clone=742 ns_P=0.0 config_n_global=799 ns_KE=14.56768359620211 pbc="T T F"
H        1.40307756       0.81006721      10.00000000        3       1.00000000       0.00000000       0.00000000       0.00000000
H        4.20923268       0.81006721      10.00000000        3       1.00000000       0.00000000       0.00000000       0.00000000
H        0.00000000       3.24026883      10.00000000        3       1.00000000       0.00000000       0.00000000       0.00000000
H        2.80615512       3.24026883      10.00000000        3       1.00000000       0.00000000       0.00000000       0.00000000
H        0.00000000       1.62013441      12.29121606        2       1.00000000       0.00000000       0.00000000       0.00000000
H        2.80615512       1.62013441      12.29121606        2       1.00000000       0.00000000       0.00000000       0.00000000
H        1.40307756       4.05033604      12.29121606        2       1.00000000       0.00000000       0.00000000       0.00000000
H        4.20923268       4.05033604      12.29121606        2       1.00000000       0.00000000       0.00000000       0.00000000
H        0.00000000       0.00000000      14.58243212        1       1.00000000       0.00000000       0.00000000       0.00000000
H        2.80615512       0.00000000      14.58243212        1       1.00000000       0.00000000       0.00000000       0.00000000
H        1.40307756       2.43020162      14.58243212        1       1.00000000       0.00000000       0.00000000       0.00000000
H        4.20923268       2.43020162      14.58243212        1       1.00000000       0.00000000       0.00000000       0.00000000
H        4.06273381       4.53092023       1.41506853        0       1.00000000       1.62908598       0.11325671      -1.66856065
H        3.18527081       3.09185270      17.55289414        0       1.00000000      -1.36379291       0.05966658       0.23883634
H        1.21171535       0.61105649       6.56938674        0       1.00000000       2.01524950      -0.79561113      -0.99529423
H        3.28209943       2.52782886      20.90952649        0       1.00000000      -0.43393467      -1.44163732       1.64161597
H        5.73144560       4.75598571       4.73902541        0       1.00000000       1.41816587      -0.52408245       1.92405186
H        2.24201706       2.56422442      23.58480035        0       1.00000000       0.99907567       0.45753996       0.21547621
H        5.52095980       2.69320182       1.08289830        0       1.00000000       0.08403521       1.54055543      -1.22290690
19
Lattice="5.612310241546866 0.0 0.0 0.0 4.860403243099165 0.0 0.0 0.0 24.582432123328676" Properties=species:S:1:pos:R:3:tags:I:1:masses:R:1:momenta:R:3 KEmax=24.559391461069055 iter=899 volume=670.5618179858607 ns_energy=6.302172926850971 last_walked_iter_clone=808 ns_P=0.0 config_n_global=899 ns_KE=14.775700066541445 pbc="T T F"
H        1.40307756       0.81006721      10.00000000        3       1.00000000       0.00000000       0.00000000       0.00000000
H        4.20923268       0.81006721      10.00000000        3       1.00000000       0.00000000       0.00000000       0.00000000
H        0.00000000       3.24026883      10.00000000        3       1.00000000       0.00000000       0.00000000       0.00000000
H        2.80615512       3.24026883      10.00000000        3       1.00000000       0.00000000       0.00000000       0.00000000
H        0.00000000       1.62013441      12.29121606        2       1.00000000       0.00000000       0.00000000       0.00000000
H        2.80615512       1.62013441      12.29121606        2       1.00000000       0.00000000       0.00000000       0.00000000
H        1.40307756       4.05033604      12.29121606        2       1.00000000       0.00000000       0.00000000       0.00000000
H        4.20923268       4.05033604      12.29121606        2       1.00000000       0.00000000       0.00000000       0.00000000
H        0.00000000       0.00000000      14.58243212        1       1.00000000       0.00000000       0.00000000       0.00000000
H        2.80615512       0.00000000      14.58243212        1       1.00000000       0.00000000       0.00000000       0.00000000
H        1.40307756       2.43020162      14.58243212        1       1.00000000       0.00000000       0.00000000       0.00000000
H        4.20923268       2.43020162      14.58243212        1       1.00000000       0.00000000       0.00000000       0.00000000
H        3.10701863       2.84841873       3.96633847        0       1.00000000       2.98001312       0.76082622       0.39013264
H        3.51715512       3.36054575      19.85528439        0       1.00000000      -0.57204512      -0.60889892       1.54366797
H        4.86465147       0.99871758       4.48235787        0       1.00000000      -0.70290036      -0.20762910       1.35723100
H        5.54230816       1.13115710      17.42574125        0       1.00000000       2.04621443       0.13055257       2.23153217
H        2.13315060       2.03454330       6.76936608        0       1.00000000      -0.77305532      -1.43000535      -0.18522941
H        3.63425815       0.95831863      18.89132477        0       1.00000000       0.41480524       1.24151057       0.88613469
H        0.75885854       2.45519768       3.20300655        0       1.00000000      -0.12266306       0.31988637      -0.05540488
19
Lattice="5.612310241546866 0.0 0.0 0.0 4.860403243099165 0.0 0.0 0.0 24.582432123328676" Properties=species:S:1:pos:R:3:tags:I:1:masses:R:1:momenta:R:3 KEmax=24.559391461069055 iter=999 volume=670.5618179858607 ns_energy=5.3677028055540585 last_walked_iter_clone=773 ns_P=0.0 config_n_global=999 ns_KE=13.774784640549626 pbc="T T F"
H        1.40307756       0.81006721      10.00000000        3       1.00000000       0.00000000       0.00000000       0.00000000
H        4.20923268       0.81006721      10.00000000        3       1.00000000       0.00000000       0.00000000       0.00000000
H        0.00000000       3.24026883      10.00000000        3       1.00000000       0.00000000       0.00000000       0.00000000
H        2.80615512       3.24026883      10.00000000        3       1.00000000       0.00000000       0.00000000       0.00000000
H        0.00000000       1.62013441      12.29121606        2       1.00000000       0.00000000       0.00000000       0.00000000
H        2.80615512       1.62013441      12.29121606        2       1.00000000       0.00000000       0.00000000       0.00000000
H        1.40307756       4.05033604      12.29121606        2       1.00000000       0.00000000       0.00000000       0.00000000
H        4.20923268       4.05033604      12.29121606        2       1.00000000       0.00000000       0.00000000       0.00000000
H        0.00000000       0.00000000      14.58243212        1       1.00000000       0.00000000       0.00000000       0.00000000
H        2.80615512       0.00000000      14.58243212        1       1.00000000       0.00000000       0.00000000       0.00000000
H        1.40307756       2.43020162      14.58243212        1       1.00000000       0.00000000       0.00000000       0.00000000
H        4.20923268       2.43020162      14.58243212        1       1.00000000       0.00000000       0.00000000       0.00000000
H        1.48739920       4.04104737       2.75722546        0       1.00000000      -0.77179059       1.47501526       1.08875816
H        2.49972399      -0.16314716      23.09429776        0       1.00000000      -0.54277046      -2.25006442       0.45745468
H        1.66905811       2.58467490       0.26414920        0       1.00000000      -0.98499520       0.43303301       2.05534553
H        4.89129198       0.35055619      17.80024990        0       1.00000000      -1.39172839       1.59431024      -1.31986193
H        2.34166688       2.01571640       7.70394930        0       1.00000000      -0.58583606       0.62583371      -1.05052551
H        0.55742703       0.80206098      19.88811128        0       1.00000000       0.70772351       1.37813437       0.50400065
H        3.81672703       3.04469271       4.33780625        0       1.00000000       0.02937641       1.17609413       0.73929923
19
Lattice="5.612310241546866 0.0 0.0 0.0 4.860403243099165 0.0 0.0 0.0 24.582432123328676" Properties=species:S:1:pos:R:3:tags:I:1:masses:R:1:momenta:R:3 KEmax=24.559391461069055 iter=1099 volume=670.5618179858607 ns_energy=4.580991155841121 last_walked_iter_clone=1004 ns_P=0.0 config_n_global=1099 ns_KE=11.57712561904466 pbc="T T F"
H        1.40307756       0.81006721      10.00000000        3       1.00000000       0.00000000       0.00000000       0.00000000
H        4.20923268       0.81006721      10.00000000        3       1.00000000       0.00000000       0.00000000       0.00000000
H        0.00000000       3.24026883      10.00000000        3       1.00000000       0.00000000       0.00000000       0.00000000
H        2.80615512       3.24026883      10.00000000        3       1.00000000       0.00000000       0.00000000       0.00000000
H        0.00000000       1.62013441      12.29121606        2       1.00000000       0.00000000       0.00000000       0.00000000
H        2.80615512       1.62013441      12.29121606        2       1.00000000       0.00000000       0.00000000       0.00000000
H        1.40307756       4.05033604      12.29121606        2       1.00000000       0.00000000       0.00000000       0.00000000
H        4.20923268       4.05033604      12.29121606        2       1.00000000       0.00000000       0.00000000       0.00000000
H        0.00000000       0.00000000      14.58243212        1       1.00000000       0.00000000       0.00000000       0.00000000
H        2.80615512       0.00000000      14.58243212        1       1.00000000       0.00000000       0.00000000       0.00000000