19
Lattice="5.612310241546866 0.0 0.0 0.0 4.860403243099165 0.0 0.0 0.0 24.582432123328676" Properties=species:S:1:pos:R:3:tags:I:1:masses:R:1:momenta:R:3:forces:R:3 KEmax=24.559391461069055 iter=107399 volume=670.5618179858607 ns_energy=-12.52106095842053 last_walked_iter_clone=107297 energy=-12.521060958431624 stress="0.023998768745543183 3.3604726110994636e-09 8.151804325124823e-09 3.3604726110994636e-09 0.02412662148377032 -1.1699286174528275e-08 8.151804325124823e-09 -1.1699286174528275e-08 0.012900328014767924" pbc="T T F"
H        1.40307756       0.81006721      10.00000000        3       1.00000000       0.00000000       0.00000000       0.00000000       0.00000000       0.00000000       0.00000000
H        4.20923268       0.81006721      10.00000000        3       1.00000000       0.00000000       0.00000000       0.00000000       0.00000000       0.00000000       0.00000000
H        0.00000000       3.24026883      10.00000000        3       1.00000000       0.00000000       0.00000000       0.00000000       0.00000000       0.00000000       0.00000000
H        2.80615512       3.24026883      10.00000000        3       1.00000000       0.00000000       0.00000000       0.00000000       0.00000000       0.00000000       0.00000000
H        0.00000000       1.62013441      12.29121606        2       1.00000000       0.00000000       0.00000000       0.00000000       0.00000000       0.00000000       0.00000000
H        2.80615512       1.62013441      12.29121606        2       1.00000000       0.00000000       0.00000000       0.00000000       0.00000000       0.00000000       0.00000000
H        1.40307756       4.05033604      12.29121606        2       1.00000000       0.00000000       0.00000000       0.00000000       0.00000000       0.00000000       0.00000000
H        4.20923268       4.05033604      12.29121606        2       1.00000000       0.00000000       0.00000000       0.00000000       0.00000000       0.00000000       0.00000000
H        0.00000000       0.00000000      14.58243212        1       1.00000000       0.00000000       0.00000000       0.00000000       0.00000000       0.00000000       0.00000000
H        2.80615512       0.00000000      14.58243212        1       1.00000000       0.00000000       0.00000000       0.00000000       0.00000000       0.00000000       0.00000000
H        1.40307756       2.43020162      14.58243212        1       1.00000000       0.00000000       0.00000000       0.00000000       0.00000000       0.00000000       0.00000000
H        4.20923268       2.43020162      14.58243212        1       1.00000000       0.00000000       0.00000000       0.00000000       0.00000000       0.00000000       0.00000000
H        4.20923263       2.43020078       7.77172748        0       1.00000000      -0.00000040      -0.00000039       0.00000016      -0.00000044       0.00000031      -0.00000097
H        1.40307808       0.81007564      16.81070502        0       1.00000000       0.00000079      -0.00000073      -0.00000238       0.00000177       0.00000176      -0.00000113
H        5.61230972       4.86040333       7.77172572        0       1.00000000       0.00000060       0.00000036      -0.00000219      -0.00000002      -0.00000129      -0.00000071
H        2.80919724       3.24027907      16.81071160        0       1.00000000      -0.00000154      -0.00000024       0.00000138      -0.00000099      -0.00000051       0.00000178
H        1.40307681       2.43020223       7.77172654        0       1.00000000       0.00000102      -0.00000002      -0.00000051       0.00000241      -0.00000152       0.00000221
H        5.60926800       3.24027793      16.81071092        0       1.00000000      -0.00000016       0.00000016      -0.00000061       0.00000031      -0.00000067      -0.00000095
H        2.80615497       4.86040322       7.77172663        0       1.00000000       0.00000106       0.00000030      -0.00000023       0.00000004       0.00000175      -0.00000083
19
Lattice="5.612310241546866 0.0 0.0 0.0 4.860403243099165 0.0 0.0 0.0 24.582432123328676" Properties=species:S:1:pos:R:3:tags:I:1:masses:R:1:momenta:R:3:forces:R:3 KEmax=24.559391461069055 iter=107399 volume=670.5618179858607 ns_energy=-12.52106095842098 last_walked_iter_clone=107299 energy=-12.521060958431624 stress="0.023998768745543183 3.3604726110994636e-09 8.151804325124823e-09 3.3604726110994636e-09 0.02412662148377032 -1.1699286174528275e-08 8.151804325124823e-09 -1.1699286174528275e-08 0.012900328014767924" pbc="T T F"
H        1.40307756       0.81006721      10.00000000        3       1.00000000       0.00000000       0.00000000       0.00000000       0.00000000       0.00000000       0.00000000
H        4.20923268       0.81006721      10.00000000        3       1.00000000       0.00000000       0.00000000       0.00000000       0.00000000       0.00000000       0.00000000
H        0.00000000       3.24026883      10.00000000        3       1.00000000       0.00000000       0.00000000       0.00000000       0.00000000       0.00000000       0.00000000
H        2.80615512       3.24026883      10.00000000        3       1.00000000       0.00000000       0.00000000       0.00000000       0.00000000       0.00000000       0.00000000
H        0.00000000       1.62013441      12.29121606        2       1.00000000       0.00000000       0.00000000       0.00000000       0.00000000       0.00000000       0.00000000
H        2.80615512       1.62013441      12.29121606        2       1.00000000       0.00000000       0.00000000       0.00000000       0.00000000       0.00000000       0.00000000
H        1.40307756       4.05033604      12.29121606        2       1.00000000       0.00000000       0.00000000       0.00000000       0.00000000       0.00000000       0.00000000
H        4.20923268       4.05033604      12.29121606        2       1.00000000       0.00000000       0.00000000       0.00000000       0.00000000       0.00000000       0.00000000
H        0.00000000       0.00000000      14.58243212        1       1.00000000       0.00000000       0.00000000       0.00000000       0.00000000       0.00000000       0.00000000
H        2.80615512       0.00000000      14.58243212        1       1.00000000       0.00000000       0.00000000       0.00000000       0.00000000       0.00000000       0.00000000
H        1.40307756       2.43020162      14.58243212        1       1.00000000       0.00000000       0.00000000       0.00000000       0.00000000       0.00000000       0.00000000
H        4.20923268       2.43020162      14.58243212        1       1.00000000       0.00000000       0.00000000       0.00000000       0.00000000       0.00000000       0.00000000
H        4.20923321       2.43020103       7.77172829        0       1.00000000       0.00000102       0.00000052       0.00000017      -0.00000044       0.00000031      -0.00000097
H        1.40307785       0.81007555      16.81070523        0       1.00000000      -0.00000049      -0.00000059       0.00000163       0.00000177       0.00000176      -0.00000113
H        5.61231099       4.86040232       7.77172688        0       1.00000000      -0.00000055       0.00000100       0.00000117      -0.00000002      -0.00000129      -0.00000071
H        2.80919902       3.24028029      16.81071132        0       1.00000000       0.00000069      -0.00000103      -0.00000073      -0.00000099      -0.00000051       0.00000178
H        1.40307778       2.43020119       7.77172774        0       1.00000000      -0.00000004      -0.00000187      -0.00000117       0.00000241      -0.00000152       0.00000221
H        5.60926912       3.24027863      16.81071113        0       1.00000000       0.00000086      -0.00000003      -0.00000050       0.00000031      -0.00000067      -0.00000095
H        2.80615569      -0.00000019       7.77172706        0       1.00000000      -0.00000054      -0.00000142       0.00000081       0.00000004       0.00000175      -0.00000083
19
Lattice="5.612310241546866 0.0 0.0 0.0 4.860403243099165 0.0 0.0 0.0 24.582432123328676" Properties=species:S:1:pos:R:3:tags:I:1:masses:R:1:momenta:R:3:forces:R:3 KEmax=24.559391461069055 iter=107399 volume=670.5618179858607 ns_energy=-12.521060958421634 last_walked_iter_clone=107231 energy=-12.521060958431624 stress="0.023998768745543183 3.3604726110994636e-09 8.151804325124823e-09 3.3604726110994636e-09 0.02412662148377032 -1.1699286174528275e-08 8.151804325124823e-09 -1.1699286174528275e-08 0.012900328014767924" pbc="T T F"
H        1.40307756       0.81006721      10.00000000        3       1.00000000       0.00000000       0.00000000       0.00000000       0.00000000       0.00000000       0.00000000
H        4.20923268       0.81006721      10.00000000        3       1.00000000       0.00000000       0.00000000       0.00000000       0.00000000       0.00000000       0.00000000
H        0.00000000       3.24026883      10.00000000        3       1.00000000       0.00000000       0.00000000       0.00000000       0.00000000       0.00000000       0.00000000
H        2.80615512       3.24026883      10.00000000        3       1.00000000       0.00000000       0.00000000       0.00000000       0.00000000       0.00000000       0.00000000
H        0.00000000       1.62013441      12.29121606        2       1.00000000       0.00000000       0.00000000       0.00000000       0.00000000       0.00000000       0.00000000
H        2.80615512       1.62013441      12.29121606        2       1.00000000       0.00000000       0.00000000       0.00000000       0.00000000       0.00000000       0.00000000
H        1.40307756       4.05033604      12.29121606        2       1.00000000       0.00000000       0.00000000       0.00000000       0.00000000       0.00000000       0.00000000
H        4.20923268       4.05033604      12.29121606        2       1.00000000       0.00000000       0.00000000       0.00000000       0.00000000       0.00000000       0.00000000
H        0.00000000       0.00000000      14.58243212        1       1.00000000       0.00000000       0.00000000       0.00000000       0.00000000       0.00000000       0.00000000
H        2.80615512       0.00000000      14.58243212        1       1.00000000       0.00000000       0.00000000       0.00000000       0.00000000       0.00000000       0.00000000
H        1.40307756       2.43020162      14.58243212        1       1.00000000       0.00000000       0.00000000       0.00000000       0.00000000       0.00000000       0.00000000
H        4.20923268       2.43020162      14.58243212        1       1.00000000       0.00000000       0.00000000       0.00000000       0.00000000       0.00000000       0.00000000
H        4.20923340       2.43020072       7.77172712        0       1.00000000       0.00000001      -0.00000120      -0.00000058      -0.00000044       0.00000031      -0.00000097
H        1.40307755       0.81007407      16.81070490        0       1.00000000       0.00000044      -0.00000051      -0.00000064       0.00000177       0.00000176      -0.00000113
H        5.61230985      -0.00000175       7.77172660        0       1.00000000       0.00000101       0.00000240       0.00000022      -0.00000002      -0.00000129      -0.00000071
H        2.80919744       3.24027816      16.81071186        0       1.00000000       0.00000005       0.00000123       0.00000131      -0.00000099      -0.00000051       0.00000178
H        1.40307832       2.43020018       7.77172695        0       1.00000000       0.00000040      -0.00000101       0.00000075       0.00000241      -0.00000152       0.00000221
H        5.60926778       3.24027828      16.81071144        0       1.00000000       0.00000050       0.00000135       0.00000049       0.00000031      -0.00000067      -0.00000095
H        2.80615501      -0.00000131       7.77172665        0       1.00000000       0.00000012       0.00000108       0.00000012       0.00000004       0.00000175      -0.00000083
19
Lattice="5.612310241546866 0.0 0.0 0.0 4.860403243099165 0.0 0.0 0.0 24.582432123328676" Properties=species:S:1:pos:R:3:tags:I:1:masses:R:1:momenta:R:3:forces:R:3 KEmax=24.559391461069055 iter=107399 volume=670.5618179858607 ns_energy=-12.521060958420527 last_walked_iter_clone=107245 energy=-12.521060958431624 stress="0.023998768745543183 3.3604726110994636e-09 8.151804325124823e-09 3.3604726110994636e-09 0.02412662148377032 -1.1699286174528275e-08 8.151804325124823e-09 -1.1699286174528275e-08 0.012900328014767924" pbc="T T F"
H        1.40307756       0.81006721      10.00000000        3       1.00000000       0.00000000       0.00000000       0.00000000       0.00000000       0.00000000       0.00000000
H        4.20923268       0.81006721      10.00000000        3       1.00000000       0.00000000       0.00000000       0.00000000       0.00000000       0.00000000       0.00000000
H        0.00000000       3.24026883      10.00000000        3       1.00000000       0.00000000       0.00000000       0.00000000       0.00000000       0.00000000       0.00000000
H        2.80615512       3.24026883      10.00000000        3       1.00000000       0.00000000       0.00000000       0.00000000       0.00000000       0.00000000       0.00000000
H        0.00000000       1.62013441      12.29121606        2       1.00000000       0.00000000       0.00000000       0.00000000       0.00000000       0.00000000       0.00000000
H        2.80615512       1.62013441      12.29121606        2       1.00000000       0.00000000       0.00000000       0.00000000       0.00000000       0.00000000       0.00000000
H        1.40307756       4.05033604      12.29121606        2       1.00000000       0.00000000       0.00000000       0.00000000       0.00000000       0.00000000       0.00000000
H        4.20923268       4.05033604      12.29121606        2       1.00000000       0.00000000       0.00000000       0.00000000       0.00000000       0.00000000       0.00000000
H        0.00000000       0.00000000      14.58243212        1       1.00000000       0.00000000       0.00000000       0.00000000       0.00000000       0.00000000       0.00000000
H        2.80615512       0.00000000      14.58243212        1       1.00000000       0.00000000       0.00000000       0.00000000       0.00000000       0.00000000       0.00000000
H        1.40307756       2.43020162      14.58243212        1       1.00000000       0.00000000       0.00000000       0.00000000       0.00000000       0.00000000       0.00000000
H        4.20923268       2.43020162      14.58243212        1       1.00000000       0.00000000       0.00000000       0.00000000       0.00000000       0.00000000       0.00000000
H        4.20923270       2.43020209       7.77172688        0       1.00000000       0.00000083      -0.00000026      -0.00000112      -0.00000044       0.00000031      -0.00000097
H        1.40307763       0.81007542      16.81070439        0       1.00000000      -0.00000060      -0.00000060      -0.00000007       0.00000177       0.00000176      -0.00000113
H       -0.00000036       4.86040412       7.77172738        0       1.00000000       0.00000151      -0.00000100      -0.00000086      -0.00000002      -0.00000129      -0.00000071
H        2.80919761       3.24027907      16.81071168        0       1.00000000      -0.00000038       0.00000190      -0.00000265      -0.00000099      -0.00000051       0.00000178
H        1.40307710       2.43020181       7.77172601        0       1.00000000      -0.00000042      -0.00000066      -0.00000123       0.00000241      -0.00000152       0.00000221
H        5.60926849       3.24027837      16.81071048        0       1.00000000      -0.00000084      -0.00000059      -0.00000018       0.00000031      -0.00000067      -0.00000095
H        2.80615538       4.86040341       7.77172706        0       1.00000000      -0.00000039      -0.00000110      -0.00000151       0.00000004       0.00000175      -0.00000083
19
Lattice="5.612310241546866 0.0 0.0 0.0 4.860403243099165 0.0 0.0 0.0 24.582432123328676" Properties=species:S:1:pos:R:3:tags:I:1:masses:R:1:momenta:R:3:forces:R:3 KEmax=24.559391461069055 iter=107399 volume=670.5618179858607 ns_energy=-12.521060958420623 last_walked_iter_clone=106906 energy=-12.521060958431624 stress="0.023998768745543183 3.3604726110994636e-09 8.151804325124823e-09 3.3604726110994636e-09 0.02412662148377032 -1.1699286174528275e-08 8.151804325124823e-09 -1.1699286174528275e-08 0.012900328014767924" pbc="T T F"
H        1.40307756       0.81006721      10.00000000        3       1.00000000       0.00000000       0.00000000       0.00000000       0.00000000       0.00000000       0.00000000
H        4.20923268       0.81006721      10.00000000        3       1.00000000       0.00000000       0.00000000       0.00000000       0.00000000       0.00000000       0.00000000
H        0.00000000       3.24026883      10.00000000        3       1.00000000       0.00000000       0.00000000       0.00000000       0.00000000       0.00000000       0.00000000
H        2.80615512       3.24026883      10.00000000        3       1.00000000       0.00000000       0.00000000       0.00000000       0.00000000       0.00000000       0.00000000
H        0.00000000       1.62013441      12.29121606        2       1.00000000       0.00000000       0.00000000       0.00000000       0.00000000       0.00000000       0.00000000
H        2.80615512       1.62013441      12.29121606        2       1.00000000       0.00000000       0.00000000       0.00000000       0.00000000       0.00000000       0.00000000
H        1.40307756       4.05033604      12.29121606        2       1.00000000       0.00000000       0.00000000       0.00000000       0.00000000       0.00000000       0.00000000
H        4.20923268       4.05033604      12.29121606        2       1.00000000       0.00000000       0.00000000       0.00000000       0.00000000       0.00000000       0.00000000
H        0.00000000       0.00000000      14.58243212        1       1.00000000       0.00000000       0.00000000       0.00000000       0.00000000       0.00000000       0.00000000
H        2.80615512       0.00000000      14.58243212        1       1.00000000       0.00000000       0.00000000       0.00000000       0.00000000       0.00000000       0.00000000
H        1.40307756       2.43020162      14.58243212        1       1.00000000       0.00000000       0.00000000       0.00000000       0.00000000       0.00000000       0.00000000
H        4.20923268       2.43020162      14.58243212        1       1.00000000       0.00000000       0.00000000       0.00000000       0.00000000       0.00000000       0.00000000
H        4.20923274       2.43020040       7.77172790        0       1.00000000      -0.00000138       0.00000065       0.00000071      -0.00000044       0.00000031      -0.00000097
H        1.40307894       0.81007562      16.81070584        0       1.00000000       0.00000012      -0.00000020       0.00000040       0.00000177       0.00000176      -0.00000113
H        5.61231039       4.86040218       7.77172766        0       1.00000000       0.00000063       0.00000028      -0.00000164      -0.00000002      -0.00000129      -0.00000071
H        2.80919877       3.24027960      16.81071134        0       1.00000000      -0.00000030      -0.00000155       0.00000072      -0.00000099      -0.00000051       0.00000178
H        1.40307765       2.43020181       7.77172726        0       1.00000000       0.00000217       0.00000002      -0.00000021       0.00000241      -0.00000152       0.00000221
H        5.60926930       3.24027761      16.81071123        0       1.00000000       0.00000038       0.00000031      -0.00000142       0.00000031      -0.00000067      -0.00000095
H        2.80615467       4.86040282       7.77172743        0       1.00000000       0.00000008       0.00000038      -0.00000042       0.00000004       0.00000175      -0.00000083
19
Lattice="5.612310241546866 0.0 0.0 0.0 4.860403243099165 0.0 0.0 0.0 24.582432123328676" Properties=species:S:1:pos:R:3:tags:I:1:masses:R:1:momenta:R:3:forces:R:3 KEmax=24.559391461069055 iter=107399 volume=670.5618179858607 ns_energy=-12.521060958421005 last_walked_iter_clone=107132 energy=-12.521060958431624 stress="0.023998768745543183 3.3604726110994636e-09 8.151804325124823e-09 3.3604726110994636e-09 0.02412662148377032 -1.1699286174528275e-08 8.151804325124823e-09 -1.1699286174528275e-08 0.012900328014767924" pbc="T T F"
H        1.40307756       0.81006721      10.00000000        3       1.00000000       0.00000000       0.00000000       0.00000000       0.00000000       0.00000000       0.00000000
H        4.20923268       0.81006721      10.00000000        3       1.00000000       0.00000000       0.00000000       0.00000000       0.00000000       0.00000000       0.00000000
H        0.00000000       3.24026883      10.00000000        3       1.00000000       0.00000000       0.00000000       0.00000000       0.00000000       0.00000000       0.00000000
H        2.80615512       3.24026883      10.00000000        3       1.00000000       0.00000000       0.00000000       0.00000000       0.00000000       0.00000000       0.00000000
H        0.00000000       1.62013441      12.29121606        2       1.00000000       0.00000000       0.00000000       0.00000000       0.00000000       0.00000000       0.00000000
H        2.80615512       1.62013441      12.29121606        2       1.00000000       0.00000000       0.00000000       0.00000000       0.00000000       0.00000000       0.00000000
H        1.40307756       4.05033604      12.29121606        2       1.00000000       0.00000000       0.00000000       0.00000000       0.00000000       0.00000000       0.00000000
H        4.20923268       4.05033604      12.29121606        2       1.00000000       0.00000000       0.00000000       0.00000000       0.00000000       0.00000000       0.00000000
H        0.00000000       0.00000000      14.58243212        1       1.00000000       0.00000000       0.00000000       0.00000000       0.00000000       0.00000000       0.00000000
H        2.80615512       0.00000000      14.58243212        1       1.00000000       0.00000000       0.00000000       0.00000000       0.00000000       0.00000000       0.00000000
H        1.40307756       2.43020162      14.58243212        1       1.00000000       0.00000000       0.00000000       0.00000000       0.00000000       0.00000000       0.00000000
H        4.20923268       2.43020162      14.58243212        1       1.00000000       0.00000000       0.00000000       0.00000000       0.00000000       0.00000000       0.00000000
H        4.20923248       2.43020198       7.77172801        0       1.00000000      -0.00000019      -0.00000167       0.00000097      -0.00000044       0.00000031      -0.00000097
H        1.40307746       0.81007456      16.81070432        0       1.00000000       0.00000002      -0.00000168      -0.00000084       0.00000177       0.00000176      -0.00000113
H       -0.00000084       4.86040370       7.77172757        0       1.00000000      -0.00000035       0.00000016      -0.00000084      -0.00000002      -0.00000129      -0.00000071
H        2.80919754       3.24027758      16.81071108        0       1.00000000       0.00000178      -0.00000141      -0.00000105      -0.00000099      -0.00000051       0.00000178
H        1.40307692       2.43020284       7.77172693        0       1.00000000       0.00000015       0.00000126      -0.00000063       0.00000241      -0.00000152       0.00000221
H        5.60926797       3.24027939      16.81071154        0       1.00000000      -0.00000097      -0.00000008      -0.00000002       0.00000031      -0.00000067      -0.00000095
H        2.80615383       4.86040405       7.77172719        0       1.00000000      -0.00000060       0.00000030       0.00000125       0.00000004       0.00000175      -0.00000083
19
Lattice="5.612310241546866 0.0 0.0 0.0 4.860403243099165 0.0 0.0 0.0 24.582432123328676" Properties=species:S:1:pos:R:3:tags:I:1:masses:R:1:momenta:R:3:forces:R:3 KEmax=24.559391461069055 iter=107399 volume=670.5618179858607 ns_energy=-12.52106095842073 last_walked_iter_clone=107386 energy=-12.521060958431624 stress="0.023998768745543183 3.3604726110994636e-09 8.151804325124823e-09 3.3604726110994636e-09 0.02412662148377032 -1.1699286174528275e-08 8.151804325124823e-09 -1.1699286174528275e-08 0.012900328014767924" pbc="T T F"
H        1.40307756       0.81006721      10.00000000        3       1.00000000       0.00000000       0.00000000       0.00000000       0.00000000       0.00000000       0.00000000
H        4.20923268       0.81006721      10.00000000        3       1.00000000       0.00000000       0.00000000       0.00000000       0.00000000       0.00000000       0.00000000
H        0.00000000       3.24026883      10.00000000        3       1.00000000       0.00000000       0.00000000       0.00000000       0.00000000       0.00000000       0.00000000
H        2.80615512       3.24026883      10.00000000        3       1.00000000       0.00000000       0.00000000       0.00000000       0.00000000       0.00000000       0.00000000
H        0.00000000       1.62013441      12.29121606        2       1.00000000       0.00000000       0.00000000       0.00000000       0.00000000       0.00000000       0.00000000
H        2.80615512       1.62013441      12.29121606        2       1.00000000       0.00000000       0.00000000       0.00000000       0.00000000       0.00000000       0.00000000
H        1.40307756       4.05033604      12.29121606        2       1.00000000       0.00000000       0.00000000       0.00000000       0.00000000       0.00000000       0.00000000
H        4.20923268       4.05033604      12.29121606        2       1.00000000       0.00000000       0.00000000       0.00000000       0.00000000       0.00000000       0.00000000
H        0.00000000       0.00000000      14.58243212        1       1.00000000       0.00000000       0.00000000       0.00000000       0.00000000       0.00000000       0.00000000
H        2.80615512       0.00000000      14.58243212        1       1.00000000       0.00000000       0.00000000       0.00000000       0.00000000       0.00000000       0.00000000
H        1.40307756       2.43020162      14.58243212        1       1.00000000       0.00000000       0.00000000       0.00000000       0.00000000       0.00000000       0.00000000
H        4.20923268       2.43020162      14.58243212        1       1.00000000       0.00000000       0.00000000       0.00000000       0.00000000       0.00000000       0.00000000
H        4.20923232       2.43020269       7.77172648        0       1.00000000       0.00000013       0.00000186       0.00000038      -0.00000044       0.00000031      -0.00000097
H        1.40307732       0.81007572      16.81070508        0       1.00000000      -0.00000071       0.00000035      -0.00000139       0.00000177       0.00000176      -0.00000113
H        5.61230998       0.00000024       7.77172756        0       1.00000000      -0.00000003      -0.00000259       0.00000094      -0.00000002      -0.00000129      -0.00000071
H        2.80919616       3.24028024      16.81071133        0       1.00000000       0.00000090      -0.00000069       0.00000195      -0.00000099      -0.00000051       0.00000178
H        1.40307740       2.43020238       7.77172768        0       1.00000000      -0.00000024      -0.00000079      -0.00000039       0.00000241      -0.00000152       0.00000221
H        5.60926720       3.24027812      16.81071164        0       1.00000000       0.00000068      -0.00000037      -0.00000006       0.00000031      -0.00000067      -0.00000095
H        2.80615499       4.86040373       7.77172651        0       1.00000000      -0.00000017       0.00000095      -0.00000068       0.00000004       0.00000175      -0.00000083
19
Lattice="5.612310241546866 0.0 0.0 0.0 4.860403243099165 0.0 0.0 0.0 24.582432123328676" Properties=species:S:1:pos:R:3:tags:I:1:masses:R:1:momenta:R:3:forces:R:3 KEmax=24.559391461069055 iter=107399 volume=670.5618179858607 ns_energy=-12.521060958420513 last_walked_iter_clone=107310 energy=-12.521060958431624 stress="0.023998768745543183 3.3604726110994636e-09 8.151804325124823e-09 3.3604726110994636e-09 0.02412662148377032 -1.1699286174528275e-08 8.151804325124823e-09 -1.1699286174528275e-08 0.012900328014767924" pbc="T T F"
H        1.40307756       0.81006721      10.00000000        3       1.00000000       0.00000000       0.00000000       0.00000000       0.00000000       0.00000000       0.00000000
H        4.20923268       0.81006721      10.00000000        3       1.00000000       0.00000000       0.00000000       0.00000000       0.00000000       0.00000000       0.00000000
H        0.00000000       3.24026883      10.00000000        3       1.00000000       0.00000000       0.00000000       0.00000000       0.00000000       0.00000000       0.00000000
H        2.80615512       3.24026883      10.00000000        3       1.00000000       0.00000000       0.00000000       0.00000000       0.00000000       0.00000000       0.00000000
H        0.00000000       1.62013441      12.29121606        2       1.00000000       0.00000000       0.00000000       0.00000000       0.00000000       0.00000000       0.00000000
H        2.80615512       1.62013441      12.29121606        2       1.00000000       0.00000000       0.00000000       0.00000000       0.00000000       0.00000000       0.00000000
H        1.40307756       4.05033604      12.29121606        2       1.00000000       0.00000000       0.00000000       0.00000000       0.00000000       0.00000000       0.00000000
H        4.20923268       4.05033604      12.29121606        2       1.00000000       0.00000000       0.00000000       0.00000000       0.00000000       0.00000000       0.00000000