18
Lattice="5.612310241546866 0.0 0.0 0.0 4.860403243099165 0.0 0.0 0.0 14.582432123328676" Properties=species:S:1:pos:R:3:tags:I:1:masses:R:1:momenta:R:3:forces:R:3 KEmax=23.26679191048647 iter=89776 volume=397.78090899293073 ns_energy=-11.638013486786607 last_walked_iter_clone=89720 energy=-11.638023362715728 stress="0.02260007202149133 6.080816222509668e-06 4.439960247653259e-06 6.080816222509668e-06 0.022698754504706077 -1.700576844711816e-05 4.439960247653259e-06 -1.700576844711816e-05 0.012263867759104407" pbc="T T F"
H        1.40307756       0.81006721       5.00000000        3       1.00000000       0.00000000       0.00000000       0.00000000       0.00000000       0.00000000       0.00000000
H        4.20923268       0.81006721       5.00000000        3       1.00000000       0.00000000       0.00000000       0.00000000       0.00000000       0.00000000       0.00000000
H        0.00000000       3.24026883       5.00000000        3       1.00000000       0.00000000       0.00000000       0.00000000       0.00000000       0.00000000       0.00000000
H        2.80615512       3.24026883       5.00000000        3       1.00000000       0.00000000       0.00000000       0.00000000       0.00000000       0.00000000       0.00000000
H        0.00000000       1.62013441       7.29121606        2       1.00000000       0.00000000       0.00000000       0.00000000       0.00000000       0.00000000       0.00000000
H        2.80615512       1.62013441       7.29121606        2       1.00000000       0.00000000       0.00000000       0.00000000       0.00000000       0.00000000       0.00000000
H        1.40307756       4.05033604       7.29121606        2       1.00000000       0.00000000       0.00000000       0.00000000       0.00000000       0.00000000       0.00000000
H        4.20923268       4.05033604       7.29121606        2       1.00000000       0.00000000       0.00000000       0.00000000       0.00000000       0.00000000       0.00000000
H        0.00000000       0.00000000       9.58243212        1       1.00000000       0.00000000       0.00000000       0.00000000       0.00000000       0.00000000       0.00000000
H        2.80615512       0.00000000       9.58243212        1       1.00000000       0.00000000       0.00000000       0.00000000       0.00000000       0.00000000       0.00000000
H        1.40307756       2.43020162       9.58243212        1       1.00000000       0.00000000       0.00000000       0.00000000       0.00000000       0.00000000       0.00000000
H        4.20923268       2.43020162       9.58243212        1       1.00000000       0.00000000       0.00000000       0.00000000       0.00000000       0.00000000       0.00000000
H        4.19939322       4.05117080      11.81094260        0       1.00000000       0.00005921       0.00138079      -0.00000715       0.00035187       0.00166464       0.00106578
H        2.80659890       1.61856503       2.77185725        0       1.00000000       0.00003423       0.00150411       0.00080229       0.00380101      -0.00176974      -0.00118895
H        0.00882928       1.62006467      11.81011469        0       1.00000000       0.00040340      -0.00035562      -0.00064694       0.00000715      -0.00177728      -0.00012232
H        4.20959497       4.04953203       2.77046979        0       1.00000000      -0.00018006      -0.00052468       0.00053237      -0.00066552       0.00061148      -0.00055884
H        1.40404462       4.04975215       2.77220230        0       1.00000000       0.00082593      -0.00164328       0.00057386       0.00200141       0.00005120      -0.00176874
H       -0.00027305       1.61844982       2.77155617        0       1.00000000      -0.00132072       0.00083594       0.00148691      -0.00428512      -0.00088325       0.00212167
18
Lattice="5.612310241546866 0.0 0.0 0.0 4.860403243099165 0.0 0.0 0.0 14.582432123328676" Properties=species:S:1:pos:R:3:tags:I:1:masses:R:1:momenta:R:3:forces:R:3 KEmax=23.26679191048647 iter=89776 volume=397.78090899293073 ns_energy=-11.638012599771155 last_walked_iter_clone=89694 energy=-11.638023362715728 stress="0.02260007202149133 6.080816222509668e-06 4.439960247653259e-06 6.080816222509668e-06 0.022698754504706077 -1.700576844711816e-05 4.439960247653259e-06 -1.700576844711816e-05 0.012263867759104407" pbc="T T F"
H        1.40307756       0.81006721       5.00000000        3       1.00000000       0.00000000       0.00000000       0.00000000       0.00000000       0.00000000       0.00000000
H        4.20923268       0.81006721       5.00000000        3       1.00000000       0.00000000       0.00000000       0.00000000       0.00000000       0.00000000       0.00000000
H        0.00000000       3.24026883       5.00000000        3       1.00000000       0.00000000       0.00000000       0.00000000       0.00000000       0.00000000       0.00000000
H        2.80615512       3.24026883       5.00000000        3       1.00000000       0.00000000       0.00000000       0.00000000       0.00000000       0.00000000       0.00000000
H        0.00000000       1.62013441       7.29121606        2       1.00000000       0.00000000       0.00000000       0.00000000       0.00000000       0.00000000       0.00000000
H        2.80615512       1.62013441       7.29121606        2       1.00000000       0.00000000       0.00000000       0.00000000       0.00000000       0.00000000       0.00000000
H        1.40307756       4.05033604       7.29121606        2       1.00000000       0.00000000       0.00000000       0.00000000       0.00000000       0.00000000       0.00000000
H        4.20923268       4.05033604       7.29121606        2       1.00000000       0.00000000       0.00000000       0.00000000       0.00000000       0.00000000       0.00000000
H        0.00000000       0.00000000       9.58243212        1       1.00000000       0.00000000       0.00000000       0.00000000       0.00000000       0.00000000       0.00000000
H        2.80615512       0.00000000       9.58243212        1       1.00000000       0.00000000       0.00000000       0.00000000       0.00000000       0.00000000       0.00000000
H        1.40307756       2.43020162       9.58243212        1       1.00000000       0.00000000       0.00000000       0.00000000       0.00000000       0.00000000       0.00000000
H        4.20923268       2.43020162       9.58243212        1       1.00000000       0.00000000       0.00000000       0.00000000       0.00000000       0.00000000       0.00000000
H        4.19953842       4.05021462      11.81166644        0       1.00000000      -0.00065722       0.00192353       0.00002135       0.00035187       0.00166464       0.00106578
H        2.80726299       1.62033681       2.77116069        0       1.00000000       0.00023085       0.00091759       0.00002032       0.00380101      -0.00176974      -0.00118895
H        0.00927826       1.62020090      11.81132605        0       1.00000000      -0.00060893      -0.00064677       0.00056064       0.00000715      -0.00177728      -0.00012232
H        4.20773902       4.04948805       2.77126022        0       1.00000000       0.00083630      -0.00065573      -0.00052855      -0.00066552       0.00061148      -0.00055884
H        1.40183118       4.05065664       2.77143973        0       1.00000000       0.00024064      -0.00039635       0.00185400       0.00200141       0.00005120      -0.00176874
H        5.61299335       1.62026806       2.76971819        0       1.00000000       0.00073832       0.00127007       0.00034851      -0.00428512      -0.00088325       0.00212167
18
Lattice="5.612310241546866 0.0 0.0 0.0 4.860403243099165 0.0 0.0 0.0 14.582432123328676" Properties=species:S:1:pos:R:3:tags:I:1:masses:R:1:momenta:R:3:forces:R:3 KEmax=23.26679191048647 iter=89776 volume=397.78090899293073 ns_energy=-11.638012883454978 last_walked_iter_clone=89534 energy=-11.638023362715728 stress="0.02260007202149133 6.080816222509668e-06 4.439960247653259e-06 6.080816222509668e-06 0.022698754504706077 -1.700576844711816e-05 4.439960247653259e-06 -1.700576844711816e-05 0.012263867759104407" pbc="T T F"
H        1.40307756       0.81006721       5.00000000        3       1.00000000       0.00000000       0.00000000       0.00000000       0.00000000       0.00000000       0.00000000
H        4.20923268       0.81006721       5.00000000        3       1.00000000       0.00000000       0.00000000       0.00000000       0.00000000       0.00000000       0.00000000
H        0.00000000       3.24026883       5.00000000        3       1.00000000       0.00000000       0.00000000       0.00000000       0.00000000       0.00000000       0.00000000
H        2.80615512       3.24026883       5.00000000        3       1.00000000       0.00000000       0.00000000       0.00000000       0.00000000       0.00000000       0.00000000
H        0.00000000       1.62013441       7.29121606        2       1.00000000       0.00000000       0.00000000       0.00000000       0.00000000       0.00000000       0.00000000
H        2.80615512       1.62013441       7.29121606        2       1.00000000       0.00000000       0.00000000       0.00000000       0.00000000       0.00000000       0.00000000
H        1.40307756       4.05033604       7.29121606        2       1.00000000       0.00000000       0.00000000       0.00000000       0.00000000       0.00000000       0.00000000
H        4.20923268       4.05033604       7.29121606        2       1.00000000       0.00000000       0.00000000       0.00000000       0.00000000       0.00000000       0.00000000
H        0.00000000       0.00000000       9.58243212        1       1.00000000       0.00000000       0.00000000       0.00000000       0.00000000       0.00000000       0.00000000
H        2.80615512       0.00000000       9.58243212        1       1.00000000       0.00000000       0.00000000       0.00000000       0.00000000       0.00000000       0.00000000
H        1.40307756       2.43020162       9.58243212        1       1.00000000       0.00000000       0.00000000       0.00000000       0.00000000       0.00000000       0.00000000
H        4.20923268       2.43020162       9.58243212        1       1.00000000       0.00000000       0.00000000       0.00000000       0.00000000       0.00000000       0.00000000
H        4.20012565       4.05056009      11.81115977        0       1.00000000       0.00072747       0.00007714       0.00066866       0.00035187       0.00166464       0.00106578
H        2.80532928       1.62065802       2.77034299        0       1.00000000       0.00072789      -0.00239161      -0.00002176       0.00380101      -0.00176974      -0.00118895
H        0.01036838       1.62072585      11.81243328        0       1.00000000       0.00065690       0.00035520       0.00095688       0.00000715      -0.00177728      -0.00012232
H        4.20833801       4.05076200       2.77076509        0       1.00000000      -0.00154285      -0.00069113      -0.00166747      -0.00066552       0.00061148      -0.00055884
H        1.40272332       4.05062867       2.77106739        0       1.00000000       0.00027054       0.00285054      -0.00061297       0.00200141       0.00005120      -0.00176874
H        5.61166149       1.62008309       2.77235206        0       1.00000000       0.00000378      -0.00041586       0.00020471      -0.00428512      -0.00088325       0.00212167
18
Lattice="5.612310241546866 0.0 0.0 0.0 4.860403243099165 0.0 0.0 0.0 14.582432123328676" Properties=species:S:1:pos:R:3:tags:I:1:masses:R:1:momenta:R:3:forces:R:3 KEmax=23.26679191048647 iter=89776 volume=397.78090899293073 ns_energy=-11.638012732798401 last_walked_iter_clone=89647 energy=-11.638023362715728 stress="0.02260007202149133 6.080816222509668e-06 4.439960247653259e-06 6.080816222509668e-06 0.022698754504706077 -1.700576844711816e-05 4.439960247653259e-06 -1.700576844711816e-05 0.012263867759104407" pbc="T T F"
H        1.40307756       0.81006721       5.00000000        3       1.00000000       0.00000000       0.00000000       0.00000000       0.00000000       0.00000000       0.00000000
H        4.20923268       0.81006721       5.00000000        3       1.00000000       0.00000000       0.00000000       0.00000000       0.00000000       0.00000000       0.00000000
H        0.00000000       3.24026883       5.00000000        3       1.00000000       0.00000000       0.00000000       0.00000000       0.00000000       0.00000000       0.00000000
H        2.80615512       3.24026883       5.00000000        3       1.00000000       0.00000000       0.00000000       0.00000000       0.00000000       0.00000000       0.00000000
H        0.00000000       1.62013441       7.29121606        2       1.00000000       0.00000000       0.00000000       0.00000000       0.00000000       0.00000000       0.00000000
H        2.80615512       1.62013441       7.29121606        2       1.00000000       0.00000000       0.00000000       0.00000000       0.00000000       0.00000000       0.00000000
H        1.40307756       4.05033604       7.29121606        2       1.00000000       0.00000000       0.00000000       0.00000000       0.00000000       0.00000000       0.00000000
H        4.20923268       4.05033604       7.29121606        2       1.00000000       0.00000000       0.00000000       0.00000000       0.00000000       0.00000000       0.00000000
H        0.00000000       0.00000000       9.58243212        1       1.00000000       0.00000000       0.00000000       0.00000000       0.00000000       0.00000000       0.00000000
H        2.80615512       0.00000000       9.58243212        1       1.00000000       0.00000000       0.00000000       0.00000000       0.00000000       0.00000000       0.00000000
H        1.40307756       2.43020162       9.58243212        1       1.00000000       0.00000000       0.00000000       0.00000000       0.00000000       0.00000000       0.00000000
H        4.20923268       2.43020162       9.58243212        1       1.00000000       0.00000000       0.00000000       0.00000000       0.00000000       0.00000000       0.00000000
H        4.20011066       4.04864174      11.81175674        0       1.00000000       0.00023127       0.00138581      -0.00082834       0.00035187       0.00166464       0.00106578
H        2.80596268       1.62064557       2.77195913        0       1.00000000       0.00150945      -0.00189381      -0.00100868       0.00380101      -0.00176974      -0.00118895
H        0.01193092       1.61961343      11.81100416        0       1.00000000      -0.00072002       0.00124419       0.00027888       0.00000715      -0.00177728      -0.00012232
H        4.20972373       4.05074080       2.77047037        0       1.00000000       0.00089596      -0.00014758      -0.00076128      -0.00066552       0.00061148      -0.00055884
H        1.40383752       4.05155083       2.76993619        0       1.00000000      -0.00028950       0.00002570      -0.00009743       0.00200141       0.00005120      -0.00176874
H        5.61240175       1.62002598       2.77175955        0       1.00000000      -0.00103361       0.00023540       0.00116227      -0.00428512      -0.00088325       0.00212167
18
Lattice="5.612310241546866 0.0 0.0 0.0 4.860403243099165 0.0 0.0 0.0 14.582432123328676" Properties=species:S:1:pos:R:3:tags:I:1:masses:R:1:momenta:R:3:forces:R:3 KEmax=23.26679191048647 iter=89776 volume=397.78090899293073 ns_energy=-11.638013332328347 last_walked_iter_clone=89681 energy=-11.638023362715728 stress="0.02260007202149133 6.080816222509668e-06 4.439960247653259e-06 6.080816222509668e-06 0.022698754504706077 -1.700576844711816e-05 4.439960247653259e-06 -1.700576844711816e-05 0.012263867759104407" pbc="T T F"
H        1.40307756       0.81006721       5.00000000        3       1.00000000       0.00000000       0.00000000       0.00000000       0.00000000       0.00000000       0.00000000
H        4.20923268       0.81006721       5.00000000        3       1.00000000       0.00000000       0.00000000       0.00000000       0.00000000       0.00000000       0.00000000
H        0.00000000       3.24026883       5.00000000        3       1.00000000       0.00000000       0.00000000       0.00000000       0.00000000       0.00000000       0.00000000
H        2.80615512       3.24026883       5.00000000        3       1.00000000       0.00000000       0.00000000       0.00000000       0.00000000       0.00000000       0.00000000
H        0.00000000       1.62013441       7.29121606        2       1.00000000       0.00000000       0.00000000       0.00000000       0.00000000       0.00000000       0.00000000
H        2.80615512       1.62013441       7.29121606        2       1.00000000       0.00000000       0.00000000       0.00000000       0.00000000       0.00000000       0.00000000
H        1.40307756       4.05033604       7.29121606        2       1.00000000       0.00000000       0.00000000       0.00000000       0.00000000       0.00000000       0.00000000
H        4.20923268       4.05033604       7.29121606        2       1.00000000       0.00000000       0.00000000       0.00000000       0.00000000       0.00000000       0.00000000
H        0.00000000       0.00000000       9.58243212        1       1.00000000       0.00000000       0.00000000       0.00000000       0.00000000       0.00000000       0.00000000
H        2.80615512       0.00000000       9.58243212        1       1.00000000       0.00000000       0.00000000       0.00000000       0.00000000       0.00000000       0.00000000
H        1.40307756       2.43020162       9.58243212        1       1.00000000       0.00000000       0.00000000       0.00000000       0.00000000       0.00000000       0.00000000
H        4.20923268       2.43020162       9.58243212        1       1.00000000       0.00000000       0.00000000       0.00000000       0.00000000       0.00000000       0.00000000
H        4.19847231       4.05041209      11.81058695        0       1.00000000      -0.00067984       0.00101026       0.00139918       0.00035187       0.00166464       0.00106578
H        2.80652851       1.62028230       2.77207861        0       1.00000000      -0.00063949      -0.00143011       0.00019152       0.00380101      -0.00176974      -0.00118895
H        0.00958001       1.61977112      11.81261023        0       1.00000000       0.00010441      -0.00061086      -0.00054623       0.00000715      -0.00177728      -0.00012232
H        4.20903418       4.05058436       2.77141926        0       1.00000000      -0.00172542      -0.00174802       0.00095693      -0.00066552       0.00061148      -0.00055884
H        1.40292616       4.05097045       2.77091754        0       1.00000000       0.00089612      -0.00002656      -0.00095876       0.00200141       0.00005120      -0.00176874
H        5.61315136       1.62151265       2.77230566        0       1.00000000       0.00175680      -0.00081594      -0.00023807      -0.00428512      -0.00088325       0.00212167
18
Lattice="5.612310241546866 0.0 0.0 0.0 4.860403243099165 0.0 0.0 0.0 14.582432123328676" Properties=species:S:1:pos:R:3:tags:I:1:masses:R:1:momenta:R:3:forces:R:3 KEmax=23.26679191048647 iter=89776 volume=397.78090899293073 ns_energy=-11.638012554556719 last_walked_iter_clone=89527 energy=-11.638023362715728 stress="0.02260007202149133 6.080816222509668e-06 4.439960247653259e-06 6.080816222509668e-06 0.022698754504706077 -1.700576844711816e-05 4.439960247653259e-06 -1.700576844711816e-05 0.012263867759104407" pbc="T T F"
H        1.40307756       0.81006721       5.00000000        3       1.00000000       0.00000000       0.00000000       0.00000000       0.00000000       0.00000000       0.00000000
H        4.20923268       0.81006721       5.00000000        3       1.00000000       0.00000000       0.00000000       0.00000000       0.00000000       0.00000000       0.00000000
H        0.00000000       3.24026883       5.00000000        3       1.00000000       0.00000000       0.00000000       0.00000000       0.00000000       0.00000000       0.00000000
H        2.80615512       3.24026883       5.00000000        3       1.00000000       0.00000000       0.00000000       0.00000000       0.00000000       0.00000000       0.00000000
H        0.00000000       1.62013441       7.29121606        2       1.00000000       0.00000000       0.00000000       0.00000000       0.00000000       0.00000000       0.00000000
H        2.80615512       1.62013441       7.29121606        2       1.00000000       0.00000000       0.00000000       0.00000000       0.00000000       0.00000000       0.00000000
H        1.40307756       4.05033604       7.29121606        2       1.00000000       0.00000000       0.00000000       0.00000000       0.00000000       0.00000000       0.00000000
H        4.20923268       4.05033604       7.29121606        2       1.00000000       0.00000000       0.00000000       0.00000000       0.00000000       0.00000000       0.00000000
H        0.00000000       0.00000000       9.58243212        1       1.00000000       0.00000000       0.00000000       0.00000000       0.00000000       0.00000000       0.00000000
H        2.80615512       0.00000000       9.58243212        1       1.00000000       0.00000000       0.00000000       0.00000000       0.00000000       0.00000000       0.00000000
H        1.40307756       2.43020162       9.58243212        1       1.00000000       0.00000000       0.00000000       0.00000000       0.00000000       0.00000000       0.00000000
H        4.20923268       2.43020162       9.58243212        1       1.00000000       0.00000000       0.00000000       0.00000000       0.00000000       0.00000000       0.00000000
H        4.20046164       4.04978677      11.81077185        0       1.00000000       0.00217787       0.00010656       0.00087072       0.00035187       0.00166464       0.00106578
H        2.80540148       1.61857043       2.77035784        0       1.00000000       0.00027541       0.00062773       0.00007747       0.00380101      -0.00176974      -0.00118895
H        0.01146832       1.61927136      11.81086545        0       1.00000000       0.00044609       0.00276777       0.00090721       0.00000715      -0.00177728      -0.00012232
H        4.20816819       4.04928542       2.77137565        0       1.00000000      -0.00078621       0.00098288      -0.00002104      -0.00066552       0.00061148      -0.00055884
H        1.40243889       4.04884065       2.77127672        0       1.00000000      -0.00101147       0.00091538       0.00183620       0.00200141       0.00005120      -0.00176874
H       -0.00144634       1.61959927       2.77201029        0       1.00000000       0.00002971       0.00009068      -0.00059404      -0.00428512      -0.00088325       0.00212167
18
Lattice="5.612310241546866 0.0 0.0 0.0 4.860403243099165 0.0 0.0 0.0 14.582432123328676" Properties=species:S:1:pos:R:3:tags:I:1:masses:R:1:momenta:R:3:forces:R:3 KEmax=23.26679191048647 iter=89776 volume=397.78090899293073 ns_energy=-11.638013142355563 last_walked_iter_clone=89749 energy=-11.638023362715728 stress="0.02260007202149133 6.080816222509668e-06 4.439960247653259e-06 6.080816222509668e-06 0.022698754504706077 -1.700576844711816e-05 4.439960247653259e-06 -1.700576844711816e-05 0.012263867759104407" pbc="T T F"
H        1.40307756       0.81006721       5.00000000        3       1.00000000       0.00000000       0.00000000       0.00000000       0.00000000       0.00000000       0.00000000
H        4.20923268       0.81006721       5.00000000        3       1.00000000       0.00000000       0.00000000       0.00000000       0.00000000       0.00000000       0.00000000
H        0.00000000       3.24026883       5.00000000        3       1.00000000       0.00000000       0.00000000       0.00000000       0.00000000       0.00000000       0.00000000
H        2.80615512       3.24026883       5.00000000        3       1.00000000       0.00000000       0.00000000       0.00000000       0.00000000       0.00000000       0.00000000
H        0.00000000       1.62013441       7.29121606        2       1.00000000       0.00000000       0.00000000       0.00000000       0.00000000       0.00000000       0.00000000
H        2.80615512       1.62013441       7.29121606        2       1.00000000       0.00000000       0.00000000       0.00000000       0.00000000       0.00000000       0.00000000
H        1.40307756       4.05033604       7.29121606        2       1.00000000       0.00000000       0.00000000       0.00000000       0.00000000       0.00000000       0.00000000
H        4.20923268       4.05033604       7.29121606        2       1.00000000       0.00000000       0.00000000       0.00000000       0.00000000       0.00000000       0.00000000
H        0.00000000       0.00000000       9.58243212        1       1.00000000       0.00000000       0.00000000       0.00000000       0.00000000       0.00000000       0.00000000
H        2.80615512       0.00000000       9.58243212        1       1.00000000       0.00000000       0.00000000       0.00000000       0.00000000       0.00000000       0.00000000
H        1.40307756       2.43020162       9.58243212        1       1.00000000       0.00000000       0.00000000       0.00000000       0.00000000       0.00000000       0.00000000
H        4.20923268       2.43020162       9.58243212        1       1.00000000       0.00000000       0.00000000       0.00000000       0.00000000       0.00000000       0.00000000
H        4.19877961       4.04908075      11.81109937        0       1.00000000      -0.00109080      -0.00000449       0.00060935       0.00035187       0.00166464       0.00106578
H        2.80590326       1.61910273       2.77164635        0       1.00000000       0.00192600      -0.00018355      -0.00084975       0.00380101      -0.00176974      -0.00118895
H        0.01132588       1.61826490      11.81180934        0       1.00000000      -0.00185655       0.00119135      -0.00039244       0.00000715      -0.00177728      -0.00012232
H        4.20810715       4.05080770       2.77073197        0       1.00000000       0.00051211       0.00135338      -0.00009451      -0.00066552       0.00061148      -0.00055884
H        1.40177023       4.04873705       2.77122517        0       1.00000000       0.00019565       0.00027437      -0.00041290       0.00200141       0.00005120      -0.00176874
H        5.61220676       1.61890061       2.77166975        0       1.00000000       0.00049575       0.00076541      -0.00013702      -0.00428512      -0.00088325       0.00212167
18
Lattice="5.612310241546866 0.0 0.0 0.0 4.860403243099165 0.0 0.0 0.0 14.582432123328676" Properties=species:S:1:pos:R:3:tags:I:1:masses:R:1:momenta:R:3:forces:R:3 KEmax=23.26679191048647 iter=89776 volume=397.78090899293073 ns_energy=-11.63801392223801 last_walked_iter_clone=89370 energy=-11.638023362715728 stress="0.02260007202149133 6.080816222509668e-06 4.439960247653259e-06 6.080816222509668e-06 0.022698754504706077 -1.700576844711816e-05 4.439960247653259e-06 -1.700576844711816e-05 0.012263867759104407" pbc="T T F"
H        1.40307756       0.81006721       5.00000000        3       1.00000000       0.00000000       0.00000000       0.00000000       0.00000000       0.00000000       0.00000000
H        4.20923268       0.81006721       5.00000000        3       1.00000000       0.00000000       0.00000000       0.00000000       0.00000000       0.00000000       0.00000000
H        0.00000000       3.24026883       5.00000000        3       1.00000000       0.00000000       0.00000000       0.00000000       0.00000000       0.00000000       0.00000000
H        2.80615512       3.24026883       5.00000000        3       1.00000000       0.00000000       0.00000000       0.00000000       0.00000000       0.00000000       0.00000000
H        0.00000000       1.62013441       7.29121606        2       1.00000000       0.00000000       0.00000000       0.00000000       0.00000000       0.00000000       0.00000000
H        2.80615512       1.62013441       7.29121606        2       1.00000000       0.00000000       0.00000000       0.00000000       0.00000000       0.00000000       0.00000000
H        1.40307756       4.05033604       7.29121606        2       1.00000000       0.00000000       0.00000000       0.00000000       0.00000000       0.00000000       0.00000000
H        4.20923268       4.05033604       7.29121606        2       1.00000000       0.00000000       0.00000000       0.00000000       0.00000000       0.00000000       0.00000000
H        0.00000000       0.00000000       9.58243212        1       1.00000000       0.00000000       0.00000000       0.00000000       0.00000000       0.00000000       0.00000000
H        2.80615512       0.00000000       9.58243212        1       1.00000000       0.00000000       0.00000000       0.00000000       0.00000000       0.00000000       0.00000000
H        1.40307756       2.43020162       9.58243212        1       1.00000000       0.00000000       0.00000000       0.00000000       0.00000000       0.00000000       0.00000000
H        4.20923268       2.43020162       9.58243212        1       1.00000000       0.00000000       0.00000000       0.00000000       0.00000000       0.00000000       0.00000000
H        4.19960680       4.05143171      11.81256903        0       1.00000000      -0.00087244      -0.00034609       0.00253022       0.00035187       0.00166464       0.00106578
H        2.80669021       1.61953480       2.77073422        0       1.00000000       0.00075804      -0.00001213      -0.00049060       0.00380101      -0.00176974      -0.00118895
H        0.00979903       1.62107449      11.81061045        0       1.00000000       0.00127846       0.00024304      -0.00059877       0.00000715      -0.00177728      -0.00012232