18
Lattice="5.612310241546866 0.0 0.0 0.0 4.860403243099165 0.0 0.0 0.0 14.582432123328676" Properties=species:S:1:pos:R:3:tags:I:1:masses:R:1:momenta:R:3:forces:R:3 KEmax=23.26679191048647 iter=239999 volume=397.78090899293073 ns_energy=-11.638031575056807 last_walked_iter_clone=239351 energy=-11.638019983973356 stress="0.022599030561907072 8.186160510481205e-09 5.7395225981358174e-09 8.186160510481205e-09 0.0227130532657961 -5.1968165570877345e-08 5.7395225981358174e-09 -5.1968165570877345e-08 0.012286254111447514" pbc="T T F"
H        1.40307756       0.81006721       5.00000000        3       1.00000000       0.00000000       0.00000000       0.00000000       0.00000000       0.00000000       0.00000000
H        4.20923268       0.81006721       5.00000000        3       1.00000000       0.00000000       0.00000000       0.00000000       0.00000000       0.00000000       0.00000000
H        0.00000000       3.24026883       5.00000000        3       1.00000000       0.00000000       0.00000000       0.00000000       0.00000000       0.00000000       0.00000000
H        2.80615512       3.24026883       5.00000000        3       1.00000000       0.00000000       0.00000000       0.00000000       0.00000000       0.00000000       0.00000000
H        0.00000000       1.62013441       7.29121606        2       1.00000000       0.00000000       0.00000000       0.00000000       0.00000000       0.00000000       0.00000000
H        2.80615512       1.62013441       7.29121606        2       1.00000000       0.00000000       0.00000000       0.00000000       0.00000000       0.00000000       0.00000000
H        1.40307756       4.05033604       7.29121606        2       1.00000000       0.00000000       0.00000000       0.00000000       0.00000000       0.00000000       0.00000000
H        4.20923268       4.05033604       7.29121606        2       1.00000000       0.00000000       0.00000000       0.00000000       0.00000000       0.00000000       0.00000000
H        0.00000000       0.00000000       9.58243212        1       1.00000000       0.00000000       0.00000000       0.00000000       0.00000000       0.00000000       0.00000000
H        2.80615512       0.00000000       9.58243212        1       1.00000000       0.00000000       0.00000000       0.00000000       0.00000000       0.00000000       0.00000000
H        1.40307756       2.43020162       9.58243212        1       1.00000000       0.00000000       0.00000000       0.00000000       0.00000000       0.00000000       0.00000000
H        4.20923268       2.43020162       9.58243212        1       1.00000000       0.00000000       0.00000000       0.00000000       0.00000000       0.00000000       0.00000000
H        4.19930215       4.05018988      11.81113050        0       1.00000000       0.00000037       0.00000133      -0.00000014      -0.00000010       0.00000225      -0.00000326
H        2.80615442       1.62013496       2.77136713        0       1.00000000      -0.00000015       0.00000035       0.00000085       0.00094890       0.00585242      -0.00000225
H        0.00993197       1.61998803      11.81113045        0       1.00000000      -0.00000007       0.00000052       0.00000100       0.00000057      -0.00000229      -0.00000074
H        4.20923205       4.05033590       2.77136772        0       1.00000000      -0.00000096       0.00000045      -0.00000068       0.00020756      -0.00587034      -0.00000130
H        1.40307713       4.05033605       2.77136692        0       1.00000000      -0.00000040       0.00000065       0.00000080      -0.00020668      -0.00587063      -0.00000173
H       -0.00000061       1.62013409       2.77136736        0       1.00000000      -0.00000075      -0.00000110      -0.00000015      -0.00094867       0.00588320      -0.00000443
18
Lattice="5.612310241546866 0.0 0.0 0.0 4.860403243099165 0.0 0.0 0.0 14.582432123328676" Properties=species:S:1:pos:R:3:tags:I:1:masses:R:1:momenta:R:3:forces:R:3 KEmax=23.26679191048647 iter=239999 volume=397.78090899293073 ns_energy=-11.638031575056717 last_walked_iter_clone=234383 energy=-11.638019983973356 stress="0.022599030561907072 8.186160510481205e-09 5.7395225981358174e-09 8.186160510481205e-09 0.0227130532657961 -5.1968165570877345e-08 5.7395225981358174e-09 -5.1968165570877345e-08 0.012286254111447514" pbc="T T F"
H        1.40307756       0.81006721       5.00000000        3       1.00000000       0.00000000       0.00000000       0.00000000       0.00000000       0.00000000       0.00000000
H        4.20923268       0.81006721       5.00000000        3       1.00000000       0.00000000       0.00000000       0.00000000       0.00000000       0.00000000       0.00000000
H        0.00000000       3.24026883       5.00000000        3       1.00000000       0.00000000       0.00000000       0.00000000       0.00000000       0.00000000       0.00000000
H        2.80615512       3.24026883       5.00000000        3       1.00000000       0.00000000       0.00000000       0.00000000       0.00000000       0.00000000       0.00000000
H        0.00000000       1.62013441       7.29121606        2       1.00000000       0.00000000       0.00000000       0.00000000       0.00000000       0.00000000       0.00000000
H        2.80615512       1.62013441       7.29121606        2       1.00000000       0.00000000       0.00000000       0.00000000       0.00000000       0.00000000       0.00000000
H        1.40307756       4.05033604       7.29121606        2       1.00000000       0.00000000       0.00000000       0.00000000       0.00000000       0.00000000       0.00000000
H        4.20923268       4.05033604       7.29121606        2       1.00000000       0.00000000       0.00000000       0.00000000       0.00000000       0.00000000       0.00000000
H        0.00000000       0.00000000       9.58243212        1       1.00000000       0.00000000       0.00000000       0.00000000       0.00000000       0.00000000       0.00000000
H        2.80615512       0.00000000       9.58243212        1       1.00000000       0.00000000       0.00000000       0.00000000       0.00000000       0.00000000       0.00000000
H        1.40307756       2.43020162       9.58243212        1       1.00000000       0.00000000       0.00000000       0.00000000       0.00000000       0.00000000       0.00000000
H        4.20923268       2.43020162       9.58243212        1       1.00000000       0.00000000       0.00000000       0.00000000       0.00000000       0.00000000       0.00000000
H        4.19930093       4.05019030      11.81113090        0       1.00000000       0.00000076      -0.00000024      -0.00000011      -0.00000010       0.00000225      -0.00000326
H        2.80615519       1.62013408       2.77136755        0       1.00000000      -0.00000045      -0.00000044      -0.00000070       0.00094890       0.00585242      -0.00000225
H        0.00993079       1.61998774      11.81113047        0       1.00000000       0.00000093       0.00000009       0.00000027       0.00000057      -0.00000229      -0.00000074
H        4.20923278       4.05033578       2.77136657        0       1.00000000      -0.00000047       0.00000030       0.00000000       0.00020756      -0.00587034      -0.00000130
H        1.40307719       4.05033577       2.77136682        0       1.00000000      -0.00000085       0.00000044      -0.00000017      -0.00020668      -0.00587063      -0.00000173
H        5.61231017       1.62013414       2.77136758        0       1.00000000       0.00000063      -0.00000185       0.00000082      -0.00094867       0.00588320      -0.00000443
18
Lattice="5.612310241546866 0.0 0.0 0.0 4.860403243099165 0.0 0.0 0.0 14.582432123328676" Properties=species:S:1:pos:R:3:tags:I:1:masses:R:1:momenta:R:3:forces:R:3 KEmax=23.26679191048647 iter=239999 volume=397.78090899293073 ns_energy=-11.638031575056713 last_walked_iter_clone=238760 energy=-11.638019983973356 stress="0.022599030561907072 8.186160510481205e-09 5.7395225981358174e-09 8.186160510481205e-09 0.0227130532657961 -5.1968165570877345e-08 5.7395225981358174e-09 -5.1968165570877345e-08 0.012286254111447514" pbc="T T F"
H        1.40307756       0.81006721       5.00000000        3       1.00000000       0.00000000       0.00000000       0.00000000       0.00000000       0.00000000       0.00000000
H        4.20923268       0.81006721       5.00000000        3       1.00000000       0.00000000       0.00000000       0.00000000       0.00000000       0.00000000       0.00000000
H        0.00000000       3.24026883       5.00000000        3       1.00000000       0.00000000       0.00000000       0.00000000       0.00000000       0.00000000       0.00000000
H        2.80615512       3.24026883       5.00000000        3       1.00000000       0.00000000       0.00000000       0.00000000       0.00000000       0.00000000       0.00000000
H        0.00000000       1.62013441       7.29121606        2       1.00000000       0.00000000       0.00000000       0.00000000       0.00000000       0.00000000       0.00000000
H        2.80615512       1.62013441       7.29121606        2       1.00000000       0.00000000       0.00000000       0.00000000       0.00000000       0.00000000       0.00000000
H        1.40307756       4.05033604       7.29121606        2       1.00000000       0.00000000       0.00000000       0.00000000       0.00000000       0.00000000       0.00000000
H        4.20923268       4.05033604       7.29121606        2       1.00000000       0.00000000       0.00000000       0.00000000       0.00000000       0.00000000       0.00000000
H        0.00000000       0.00000000       9.58243212        1       1.00000000       0.00000000       0.00000000       0.00000000       0.00000000       0.00000000       0.00000000
H        2.80615512       0.00000000       9.58243212        1       1.00000000       0.00000000       0.00000000       0.00000000       0.00000000       0.00000000       0.00000000
H        1.40307756       2.43020162       9.58243212        1       1.00000000       0.00000000       0.00000000       0.00000000       0.00000000       0.00000000       0.00000000
H        4.20923268       2.43020162       9.58243212        1       1.00000000       0.00000000       0.00000000       0.00000000       0.00000000       0.00000000       0.00000000
H        4.19930142       4.05018913      11.81113068        0       1.00000000      -0.00000036       0.00000078       0.00000058      -0.00000010       0.00000225      -0.00000326
H        2.80615553       1.62013415       2.77136732        0       1.00000000      -0.00000012       0.00000055       0.00000063       0.00094890       0.00585242      -0.00000225
H        0.00993113       1.61998813      11.81113040        0       1.00000000       0.00000150       0.00000035      -0.00000108       0.00000057      -0.00000229      -0.00000074
H        4.20923310       4.05033528       2.77136732        0       1.00000000       0.00000072      -0.00000030      -0.00000069       0.00020756      -0.00587034      -0.00000130
H        1.40307742       4.05033546       2.77136720        0       1.00000000       0.00000112      -0.00000026       0.00000021      -0.00020668      -0.00587063      -0.00000173
H        0.00000029       1.62013423       2.77136745        0       1.00000000      -0.00000027       0.00000008       0.00000124      -0.00094867       0.00588320      -0.00000443
18
Lattice="5.612310241546866 0.0 0.0 0.0 4.860403243099165 0.0 0.0 0.0 14.582432123328676" Properties=species:S:1:pos:R:3:tags:I:1:masses:R:1:momenta:R:3:forces:R:3 KEmax=23.26679191048647 iter=239999 volume=397.78090899293073 ns_energy=-11.638031575056969 last_walked_iter_clone=237004 energy=-11.638019983973356 stress="0.022599030561907072 8.186160510481205e-09 5.7395225981358174e-09 8.186160510481205e-09 0.0227130532657961 -5.1968165570877345e-08 5.7395225981358174e-09 -5.1968165570877345e-08 0.012286254111447514" pbc="T T F"
H        1.40307756       0.81006721       5.00000000        3       1.00000000       0.00000000       0.00000000       0.00000000       0.00000000       0.00000000       0.00000000
H        4.20923268       0.81006721       5.00000000        3       1.00000000       0.00000000       0.00000000       0.00000000       0.00000000       0.00000000       0.00000000
H        0.00000000       3.24026883       5.00000000        3       1.00000000       0.00000000       0.00000000       0.00000000       0.00000000       0.00000000       0.00000000
H        2.80615512       3.24026883       5.00000000        3       1.00000000       0.00000000       0.00000000       0.00000000       0.00000000       0.00000000       0.00000000
H        0.00000000       1.62013441       7.29121606        2       1.00000000       0.00000000       0.00000000       0.00000000       0.00000000       0.00000000       0.00000000
H        2.80615512       1.62013441       7.29121606        2       1.00000000       0.00000000       0.00000000       0.00000000       0.00000000       0.00000000       0.00000000
H        1.40307756       4.05033604       7.29121606        2       1.00000000       0.00000000       0.00000000       0.00000000       0.00000000       0.00000000       0.00000000
H        4.20923268       4.05033604       7.29121606        2       1.00000000       0.00000000       0.00000000       0.00000000       0.00000000       0.00000000       0.00000000
H        0.00000000       0.00000000       9.58243212        1       1.00000000       0.00000000       0.00000000       0.00000000       0.00000000       0.00000000       0.00000000
H        2.80615512       0.00000000       9.58243212        1       1.00000000       0.00000000       0.00000000       0.00000000       0.00000000       0.00000000       0.00000000
H        1.40307756       2.43020162       9.58243212        1       1.00000000       0.00000000       0.00000000       0.00000000       0.00000000       0.00000000       0.00000000
H        4.20923268       2.43020162       9.58243212        1       1.00000000       0.00000000       0.00000000       0.00000000       0.00000000       0.00000000       0.00000000
H        4.19930065       4.05018851      11.81113056        0       1.00000000      -0.00000073      -0.00000081       0.00000012      -0.00000010       0.00000225      -0.00000326
H        2.80615419       1.62013464       2.77136719        0       1.00000000      -0.00000046       0.00000059      -0.00000011       0.00094890       0.00585242      -0.00000225
H        0.00993074       1.61998695      11.81113070        0       1.00000000       0.00000043      -0.00000084      -0.00000010       0.00000057      -0.00000229      -0.00000074
H        4.20923178       4.05033636       2.77136724        0       1.00000000      -0.00000036       0.00000052      -0.00000129       0.00020756      -0.00587034      -0.00000130
H        1.40307680       4.05033642       2.77136637        0       1.00000000      -0.00000005      -0.00000078      -0.00000010      -0.00020668      -0.00587063      -0.00000173
H        5.61230938       1.62013508       2.77136797        0       1.00000000       0.00000076       0.00000033      -0.00000016      -0.00094867       0.00588320      -0.00000443
18
Lattice="5.612310241546866 0.0 0.0 0.0 4.860403243099165 0.0 0.0 0.0 14.582432123328676" Properties=species:S:1:pos:R:3:tags:I:1:masses:R:1:momenta:R:3:forces:R:3 KEmax=23.26679191048647 iter=239999 volume=397.78090899293073 ns_energy=-11.638031575056786 last_walked_iter_clone=235269 energy=-11.638019983973356 stress="0.022599030561907072 8.186160510481205e-09 5.7395225981358174e-09 8.186160510481205e-09 0.0227130532657961 -5.1968165570877345e-08 5.7395225981358174e-09 -5.1968165570877345e-08 0.012286254111447514" pbc="T T F"
H        1.40307756       0.81006721       5.00000000        3       1.00000000       0.00000000       0.00000000       0.00000000       0.00000000       0.00000000       0.00000000
H        4.20923268       0.81006721       5.00000000        3       1.00000000       0.00000000       0.00000000       0.00000000       0.00000000       0.00000000       0.00000000
H        0.00000000       3.24026883       5.00000000        3       1.00000000       0.00000000       0.00000000       0.00000000       0.00000000       0.00000000       0.00000000
H        2.80615512       3.24026883       5.00000000        3       1.00000000       0.00000000       0.00000000       0.00000000       0.00000000       0.00000000       0.00000000
H        0.00000000       1.62013441       7.29121606        2       1.00000000       0.00000000       0.00000000       0.00000000       0.00000000       0.00000000       0.00000000
H        2.80615512       1.62013441       7.29121606        2       1.00000000       0.00000000       0.00000000       0.00000000       0.00000000       0.00000000       0.00000000
H        1.40307756       4.05033604       7.29121606        2       1.00000000       0.00000000       0.00000000       0.00000000       0.00000000       0.00000000       0.00000000
H        4.20923268       4.05033604       7.29121606        2       1.00000000       0.00000000       0.00000000       0.00000000       0.00000000       0.00000000       0.00000000
H        0.00000000       0.00000000       9.58243212        1       1.00000000       0.00000000       0.00000000       0.00000000       0.00000000       0.00000000       0.00000000
H        2.80615512       0.00000000       9.58243212        1       1.00000000       0.00000000       0.00000000       0.00000000       0.00000000       0.00000000       0.00000000
H        1.40307756       2.43020162       9.58243212        1       1.00000000       0.00000000       0.00000000       0.00000000       0.00000000       0.00000000       0.00000000
H        4.20923268       2.43020162       9.58243212        1       1.00000000       0.00000000       0.00000000       0.00000000       0.00000000       0.00000000       0.00000000
H        4.19930167       4.05018988      11.81113048        0       1.00000000      -0.00000170      -0.00000068      -0.00000056      -0.00000010       0.00000225      -0.00000326
H        2.80615486       1.62013464       2.77136692        0       1.00000000       0.00000043       0.00000059      -0.00000048       0.00094890       0.00585242      -0.00000225
H        0.00993040       1.61998850      11.81113048        0       1.00000000      -0.00000071       0.00000000      -0.00000010       0.00000057      -0.00000229      -0.00000074
H        4.20923212       4.05033605       2.77136745        0       1.00000000       0.00000079       0.00000059       0.00000124       0.00020756      -0.00587034      -0.00000130
H        1.40307733       4.05033646       2.77136725        0       1.00000000      -0.00000061      -0.00000087      -0.00000031      -0.00020668      -0.00587063      -0.00000173
H        5.61230965       1.62013523       2.77136716        0       1.00000000       0.00000022      -0.00000047       0.00000035      -0.00094867       0.00588320      -0.00000443
18
Lattice="5.612310241546866 0.0 0.0 0.0 4.860403243099165 0.0 0.0 0.0 14.582432123328676" Properties=species:S:1:pos:R:3:tags:I:1:masses:R:1:momenta:R:3:forces:R:3 KEmax=23.26679191048647 iter=239999 volume=397.78090899293073 ns_energy=-11.638031575056825 last_walked_iter_clone=236829 energy=-11.638019983973356 stress="0.022599030561907072 8.186160510481205e-09 5.7395225981358174e-09 8.186160510481205e-09 0.0227130532657961 -5.1968165570877345e-08 5.7395225981358174e-09 -5.1968165570877345e-08 0.012286254111447514" pbc="T T F"
H        1.40307756       0.81006721       5.00000000        3       1.00000000       0.00000000       0.00000000       0.00000000       0.00000000       0.00000000       0.00000000
H        4.20923268       0.81006721       5.00000000        3       1.00000000       0.00000000       0.00000000       0.00000000       0.00000000       0.00000000       0.00000000
H        0.00000000       3.24026883       5.00000000        3       1.00000000       0.00000000       0.00000000       0.00000000       0.00000000       0.00000000       0.00000000
H        2.80615512       3.24026883       5.00000000        3       1.00000000       0.00000000       0.00000000       0.00000000       0.00000000       0.00000000       0.00000000
H        0.00000000       1.62013441       7.29121606        2       1.00000000       0.00000000       0.00000000       0.00000000       0.00000000       0.00000000       0.00000000
H        2.80615512       1.62013441       7.29121606        2       1.00000000       0.00000000       0.00000000       0.00000000       0.00000000       0.00000000       0.00000000
H        1.40307756       4.05033604       7.29121606        2       1.00000000       0.00000000       0.00000000       0.00000000       0.00000000       0.00000000       0.00000000
H        4.20923268       4.05033604       7.29121606        2       1.00000000       0.00000000       0.00000000       0.00000000       0.00000000       0.00000000       0.00000000
H        0.00000000       0.00000000       9.58243212        1       1.00000000       0.00000000       0.00000000       0.00000000       0.00000000       0.00000000       0.00000000
H        2.80615512       0.00000000       9.58243212        1       1.00000000       0.00000000       0.00000000       0.00000000       0.00000000       0.00000000       0.00000000
H        1.40307756       2.43020162       9.58243212        1       1.00000000       0.00000000       0.00000000       0.00000000       0.00000000       0.00000000       0.00000000
H        4.20923268       2.43020162       9.58243212        1       1.00000000       0.00000000       0.00000000       0.00000000       0.00000000       0.00000000       0.00000000
H        4.19930231       4.05018940      11.81113075        0       1.00000000      -0.00000051      -0.00000039       0.00000136      -0.00000010       0.00000225      -0.00000326
H        2.80615436       1.62013423       2.77136707        0       1.00000000      -0.00000090      -0.00000038      -0.00000063       0.00094890       0.00585242      -0.00000225
H        0.00993104       1.61998767      11.81113046        0       1.00000000      -0.00000094       0.00000049       0.00000047       0.00000057      -0.00000229      -0.00000074
H        4.20923333       4.05033588       2.77136697        0       1.00000000       0.00000003       0.00000097       0.00000010       0.00020756      -0.00587034      -0.00000130
H        1.40307816       4.05033580       2.77136707        0       1.00000000       0.00000016      -0.00000092      -0.00000064      -0.00020668      -0.00587063      -0.00000173
H        5.61231025       1.62013444       2.77136700        0       1.00000000       0.00000056       0.00000091       0.00000013      -0.00094867       0.00588320      -0.00000443
18
Lattice="5.612310241546866 0.0 0.0 0.0 4.860403243099165 0.0 0.0 0.0 14.582432123328676" Properties=species:S:1:pos:R:3:tags:I:1:masses:R:1:momenta:R:3:forces:R:3 KEmax=23.26679191048647 iter=239999 volume=397.78090899293073 ns_energy=-11.63803157505674 last_walked_iter_clone=236263 energy=-11.638019983973356 stress="0.022599030561907072 8.186160510481205e-09 5.7395225981358174e-09 8.186160510481205e-09 0.0227130532657961 -5.1968165570877345e-08 5.7395225981358174e-09 -5.1968165570877345e-08 0.012286254111447514" pbc="T T F"
H        1.40307756       0.81006721       5.00000000        3       1.00000000       0.00000000       0.00000000       0.00000000       0.00000000       0.00000000       0.00000000
H        4.20923268       0.81006721       5.00000000        3       1.00000000       0.00000000       0.00000000       0.00000000       0.00000000       0.00000000       0.00000000
H        0.00000000       3.24026883       5.00000000        3       1.00000000       0.00000000       0.00000000       0.00000000       0.00000000       0.00000000       0.00000000
H        2.80615512       3.24026883       5.00000000        3       1.00000000       0.00000000       0.00000000       0.00000000       0.00000000       0.00000000       0.00000000
H        0.00000000       1.62013441       7.29121606        2       1.00000000       0.00000000       0.00000000       0.00000000       0.00000000       0.00000000       0.00000000
H        2.80615512       1.62013441       7.29121606        2       1.00000000       0.00000000       0.00000000       0.00000000       0.00000000       0.00000000       0.00000000
H        1.40307756       4.05033604       7.29121606        2       1.00000000       0.00000000       0.00000000       0.00000000       0.00000000       0.00000000       0.00000000
H        4.20923268       4.05033604       7.29121606        2       1.00000000       0.00000000       0.00000000       0.00000000       0.00000000       0.00000000       0.00000000
H        0.00000000       0.00000000       9.58243212        1       1.00000000       0.00000000       0.00000000       0.00000000       0.00000000       0.00000000       0.00000000
H        2.80615512       0.00000000       9.58243212        1       1.00000000       0.00000000       0.00000000       0.00000000       0.00000000       0.00000000       0.00000000
H        1.40307756       2.43020162       9.58243212        1       1.00000000       0.00000000       0.00000000       0.00000000       0.00000000       0.00000000       0.00000000
H        4.20923268       2.43020162       9.58243212        1       1.00000000       0.00000000       0.00000000       0.00000000       0.00000000       0.00000000       0.00000000
H        4.19930095       4.05018880      11.81113006        0       1.00000000      -0.00000063       0.00000135       0.00000012      -0.00000010       0.00000225      -0.00000326
H        2.80615543       1.62013444       2.77136702        0       1.00000000      -0.00000075       0.00000039      -0.00000014       0.00094890       0.00585242      -0.00000225
H        0.00993186       1.61998662      11.81113062        0       1.00000000      -0.00000038      -0.00000012       0.00000048       0.00000057      -0.00000229      -0.00000074
H        4.20923291       4.05033569       2.77136710        0       1.00000000       0.00000034      -0.00000096      -0.00000029       0.00020756      -0.00587034      -0.00000130
H        1.40307828       4.05033496       2.77136704        0       1.00000000       0.00000018       0.00000040      -0.00000025      -0.00020668      -0.00587063      -0.00000173
H        5.61231055       1.62013399       2.77136755        0       1.00000000      -0.00000062       0.00000086      -0.00000008      -0.00094867       0.00588320      -0.00000443
18
Lattice="5.612310241546866 0.0 0.0 0.0 4.860403243099165 0.0 0.0 0.0 14.582432123328676" Properties=species:S:1:pos:R:3:tags:I:1:masses:R:1:momenta:R:3:forces:R:3 KEmax=23.26679191048647 iter=239999 volume=397.78090899293073 ns_energy=-11.638031575056758 last_walked_iter_clone=236996 energy=-11.638019983973356 stress="0.022599030561907072 8.186160510481205e-09 5.7395225981358174e-09 8.186160510481205e-09 0.0227130532657961 -5.1968165570877345e-08 5.7395225981358174e-09 -5.1968165570877345e-08 0.012286254111447514" pbc="T T F"
H        1.40307756       0.81006721       5.00000000        3       1.00000000       0.00000000       0.00000000       0.00000000       0.00000000       0.00000000       0.00000000
H        4.20923268       0.81006721       5.00000000        3       1.00000000       0.00000000       0.00000000       0.00000000       0.00000000       0.00000000       0.00000000
H        0.00000000       3.24026883       5.00000000        3       1.00000000       0.00000000       0.00000000       0.00000000       0.00000000       0.00000000       0.00000000
H        2.80615512       3.24026883       5.00000000        3       1.00000000       0.00000000       0.00000000       0.00000000       0.00000000       0.00000000       0.00000000
H        0.00000000       1.62013441       7.29121606        2       1.00000000       0.00000000       0.00000000       0.00000000       0.00000000       0.00000000       0.00000000
H        2.80615512       1.62013441       7.29121606        2       1.00000000       0.00000000       0.00000000       0.00000000       0.00000000       0.00000000       0.00000000
H        1.40307756       4.05033604       7.29121606        2       1.00000000       0.00000000       0.00000000       0.00000000       0.00000000       0.00000000       0.00000000
H        4.20923268       4.05033604       7.29121606        2       1.00000000       0.00000000       0.00000000       0.00000000       0.00000000       0.00000000       0.00000000
H        0.00000000       0.00000000       9.58243212        1       1.00000000       0.00000000       0.00000000       0.00000000       0.00000000       0.00000000       0.00000000
H        2.80615512       0.00000000       9.58243212        1       1.00000000       0.00000000       0.00000000       0.00000000       0.00000000       0.00000000       0.00000000
H        1.40307756       2.43020162       9.58243212        1       1.00000000       0.00000000       0.00000000       0.00000000       0.00000000       0.00000000       0.00000000
H        4.20923268       2.43020162       9.58243212        1       1.00000000       0.00000000       0.00000000       0.00000000       0.00000000       0.00000000       0.00000000
H        4.19930228       4.05018844      11.81113058        0       1.00000000       0.00000058      -0.00000037      -0.00000057      -0.00000010       0.00000225      -0.00000326
H        2.80615506       1.62013448       2.77136701        0       1.00000000       0.00000023       0.00000074      -0.00000090       0.00094890       0.00585242      -0.00000225
H        0.00993084       1.61998669      11.81113025        0       1.00000000       0.00000046       0.00000196       0.00000060       0.00000057      -0.00000229      -0.00000074