18
Lattice="5.612310241546866 0.0 0.0 0.0 4.860403243099165 0.0 0.0 0.0 14.582432123328676" Properties=species:S:1:pos:R:3:tags:I:1:masses:R:1:momenta:R:3:forces:R:3 KEmax=23.26679191048647 iter=169300 volume=397.78090899293073 ns_energy=-11.638031574891333 last_walked_iter_clone=169019 energy=-11.638031574973182 stress="0.02259926071291888 5.416585052978453e-08 -4.18817966480238e-08 5.416585052978453e-08 0.022713659690923888 -6.515425574269551e-09 -4.18817966480238e-08 -6.515425574269551e-09 0.012286354532859058" pbc="T T F"
H        1.40307756       0.81006721       5.00000000        3       1.00000000       0.00000000       0.00000000       0.00000000       0.00000000       0.00000000       0.00000000
H        4.20923268       0.81006721       5.00000000        3       1.00000000       0.00000000       0.00000000       0.00000000       0.00000000       0.00000000       0.00000000
H        0.00000000       3.24026883       5.00000000        3       1.00000000       0.00000000       0.00000000       0.00000000       0.00000000       0.00000000       0.00000000
H        2.80615512       3.24026883       5.00000000        3       1.00000000       0.00000000       0.00000000       0.00000000       0.00000000       0.00000000       0.00000000
H        0.00000000       1.62013441       7.29121606        2       1.00000000       0.00000000       0.00000000       0.00000000       0.00000000       0.00000000       0.00000000
H        2.80615512       1.62013441       7.29121606        2       1.00000000       0.00000000       0.00000000       0.00000000       0.00000000       0.00000000       0.00000000
H        1.40307756       4.05033604       7.29121606        2       1.00000000       0.00000000       0.00000000       0.00000000       0.00000000       0.00000000       0.00000000
H        4.20923268       4.05033604       7.29121606        2       1.00000000       0.00000000       0.00000000       0.00000000       0.00000000       0.00000000       0.00000000
H        0.00000000       0.00000000       9.58243212        1       1.00000000       0.00000000       0.00000000       0.00000000       0.00000000       0.00000000       0.00000000
H        2.80615512       0.00000000       9.58243212        1       1.00000000       0.00000000       0.00000000       0.00000000       0.00000000       0.00000000       0.00000000
H        1.40307756       2.43020162       9.58243212        1       1.00000000       0.00000000       0.00000000       0.00000000       0.00000000       0.00000000       0.00000000
H        4.20923268       2.43020162       9.58243212        1       1.00000000       0.00000000       0.00000000       0.00000000       0.00000000       0.00000000       0.00000000
H        4.19929662       4.05018883      11.81113093        0       1.00000000       0.00000309       0.00000476      -0.00000303      -0.00000359       0.00000625       0.00000073
H        2.80615621       1.62012983       2.77136612        0       1.00000000       0.00000079      -0.00000008       0.00000069       0.00000389      -0.00000279       0.00000186
H        0.00992769       1.61998873      11.81113197        0       1.00000000      -0.00000275       0.00000132       0.00000228       0.00000628      -0.00000754      -0.00000167
H        4.20923304       4.05032750       2.77136752        0       1.00000000      -0.00000336      -0.00000046      -0.00000198       0.00000414       0.00000010       0.00000496
H        1.40307790       4.05033265       2.77136466        0       1.00000000       0.00000080      -0.00000844      -0.00000097       0.00000506       0.00000193      -0.00000435
H        0.00000031       1.62012909       2.77136647        0       1.00000000      -0.00000414       0.00000201      -0.00000132      -0.00001503      -0.00000082       0.00000247
18
Lattice="5.612310241546866 0.0 0.0 0.0 4.860403243099165 0.0 0.0 0.0 14.582432123328676" Properties=species:S:1:pos:R:3:tags:I:1:masses:R:1:momenta:R:3:forces:R:3 KEmax=23.26679191048647 iter=169300 volume=397.78090899293073 ns_energy=-11.638031574889744 last_walked_iter_clone=168737 energy=-11.638031574973182 stress="0.02259926071291888 5.416585052978453e-08 -4.18817966480238e-08 5.416585052978453e-08 0.022713659690923888 -6.515425574269551e-09 -4.18817966480238e-08 -6.515425574269551e-09 0.012286354532859058" pbc="T T F"
H        1.40307756       0.81006721       5.00000000        3       1.00000000       0.00000000       0.00000000       0.00000000       0.00000000       0.00000000       0.00000000
H        4.20923268       0.81006721       5.00000000        3       1.00000000       0.00000000       0.00000000       0.00000000       0.00000000       0.00000000       0.00000000
H        0.00000000       3.24026883       5.00000000        3       1.00000000       0.00000000       0.00000000       0.00000000       0.00000000       0.00000000       0.00000000
H        2.80615512       3.24026883       5.00000000        3       1.00000000       0.00000000       0.00000000       0.00000000       0.00000000       0.00000000       0.00000000
H        0.00000000       1.62013441       7.29121606        2       1.00000000       0.00000000       0.00000000       0.00000000       0.00000000       0.00000000       0.00000000
H        2.80615512       1.62013441       7.29121606        2       1.00000000       0.00000000       0.00000000       0.00000000       0.00000000       0.00000000       0.00000000
H        1.40307756       4.05033604       7.29121606        2       1.00000000       0.00000000       0.00000000       0.00000000       0.00000000       0.00000000       0.00000000
H        4.20923268       4.05033604       7.29121606        2       1.00000000       0.00000000       0.00000000       0.00000000       0.00000000       0.00000000       0.00000000
H        0.00000000       0.00000000       9.58243212        1       1.00000000       0.00000000       0.00000000       0.00000000       0.00000000       0.00000000       0.00000000
H        2.80615512       0.00000000       9.58243212        1       1.00000000       0.00000000       0.00000000       0.00000000       0.00000000       0.00000000       0.00000000
H        1.40307756       2.43020162       9.58243212        1       1.00000000       0.00000000       0.00000000       0.00000000       0.00000000       0.00000000       0.00000000
H        4.20923268       2.43020162       9.58243212        1       1.00000000       0.00000000       0.00000000       0.00000000       0.00000000       0.00000000       0.00000000
H        4.19929752       4.05018431      11.81113163        0       1.00000000      -0.00000347      -0.00000019       0.00000319      -0.00000359       0.00000625       0.00000073
H        2.80615210       1.62013538       2.77136619        0       1.00000000       0.00000131       0.00000412       0.00000104       0.00000389      -0.00000279       0.00000186
H        0.00993354       1.61998599      11.81112928        0       1.00000000       0.00000232       0.00000288       0.00000140       0.00000628      -0.00000754      -0.00000167
H        4.20923001       4.05033760       2.77136482        0       1.00000000       0.00000363       0.00000329      -0.00000263       0.00000414       0.00000010       0.00000496
H        1.40307871       4.05033537       2.77136730        0       1.00000000      -0.00000395      -0.00000238      -0.00000007       0.00000506       0.00000193      -0.00000435
H       -0.00000360       1.62013662       2.77136488        0       1.00000000       0.00000016      -0.00000007       0.00000697      -0.00001503      -0.00000082       0.00000247
18
Lattice="5.612310241546866 0.0 0.0 0.0 4.860403243099165 0.0 0.0 0.0 14.582432123328676" Properties=species:S:1:pos:R:3:tags:I:1:masses:R:1:momenta:R:3:forces:R:3 KEmax=23.26679191048647 iter=169300 volume=397.78090899293073 ns_energy=-11.638031574899736 last_walked_iter_clone=168832 energy=-11.638031574973182 stress="0.02259926071291888 5.416585052978453e-08 -4.18817966480238e-08 5.416585052978453e-08 0.022713659690923888 -6.515425574269551e-09 -4.18817966480238e-08 -6.515425574269551e-09 0.012286354532859058" pbc="T T F"
H        1.40307756       0.81006721       5.00000000        3       1.00000000       0.00000000       0.00000000       0.00000000       0.00000000       0.00000000       0.00000000
H        4.20923268       0.81006721       5.00000000        3       1.00000000       0.00000000       0.00000000       0.00000000       0.00000000       0.00000000       0.00000000
H        0.00000000       3.24026883       5.00000000        3       1.00000000       0.00000000       0.00000000       0.00000000       0.00000000       0.00000000       0.00000000
H        2.80615512       3.24026883       5.00000000        3       1.00000000       0.00000000       0.00000000       0.00000000       0.00000000       0.00000000       0.00000000
H        0.00000000       1.62013441       7.29121606        2       1.00000000       0.00000000       0.00000000       0.00000000       0.00000000       0.00000000       0.00000000
H        2.80615512       1.62013441       7.29121606        2       1.00000000       0.00000000       0.00000000       0.00000000       0.00000000       0.00000000       0.00000000
H        1.40307756       4.05033604       7.29121606        2       1.00000000       0.00000000       0.00000000       0.00000000       0.00000000       0.00000000       0.00000000
H        4.20923268       4.05033604       7.29121606        2       1.00000000       0.00000000       0.00000000       0.00000000       0.00000000       0.00000000       0.00000000
H        0.00000000       0.00000000       9.58243212        1       1.00000000       0.00000000       0.00000000       0.00000000       0.00000000       0.00000000       0.00000000
H        2.80615512       0.00000000       9.58243212        1       1.00000000       0.00000000       0.00000000       0.00000000       0.00000000       0.00000000       0.00000000
H        1.40307756       2.43020162       9.58243212        1       1.00000000       0.00000000       0.00000000       0.00000000       0.00000000       0.00000000       0.00000000
H        4.20923268       2.43020162       9.58243212        1       1.00000000       0.00000000       0.00000000       0.00000000       0.00000000       0.00000000       0.00000000
H        4.19930047       4.05018794      11.81112932        0       1.00000000       0.00000245      -0.00000087       0.00000069      -0.00000359       0.00000625       0.00000073
H        2.80615500       1.62013322       2.77136635        0       1.00000000       0.00000000       0.00000429      -0.00000574       0.00000389      -0.00000279       0.00000186
H        0.00993326       1.61998506      11.81112999        0       1.00000000       0.00000355      -0.00000079       0.00000209       0.00000628      -0.00000754      -0.00000167
H        4.20922887       4.05033707       2.77136643        0       1.00000000      -0.00000419       0.00000032       0.00000067       0.00000414       0.00000010       0.00000496
H        1.40307828       4.05033536       2.77136462        0       1.00000000       0.00000107      -0.00000459      -0.00000354       0.00000506       0.00000193      -0.00000435
H        5.61230977       1.62013378       2.77136391        0       1.00000000       0.00000405       0.00000432      -0.00000391      -0.00001503      -0.00000082       0.00000247
18
Lattice="5.612310241546866 0.0 0.0 0.0 4.860403243099165 0.0 0.0 0.0 14.582432123328676" Properties=species:S:1:pos:R:3:tags:I:1:masses:R:1:momenta:R:3:forces:R:3 KEmax=23.26679191048647 iter=169300 volume=397.78090899293073 ns_energy=-11.638031574891926 last_walked_iter_clone=168555 energy=-11.638031574973182 stress="0.02259926071291888 5.416585052978453e-08 -4.18817966480238e-08 5.416585052978453e-08 0.022713659690923888 -6.515425574269551e-09 -4.18817966480238e-08 -6.515425574269551e-09 0.012286354532859058" pbc="T T F"
H        1.40307756       0.81006721       5.00000000        3       1.00000000       0.00000000       0.00000000       0.00000000       0.00000000       0.00000000       0.00000000
H        4.20923268       0.81006721       5.00000000        3       1.00000000       0.00000000       0.00000000       0.00000000       0.00000000       0.00000000       0.00000000
H        0.00000000       3.24026883       5.00000000        3       1.00000000       0.00000000       0.00000000       0.00000000       0.00000000       0.00000000       0.00000000
H        2.80615512       3.24026883       5.00000000        3       1.00000000       0.00000000       0.00000000       0.00000000       0.00000000       0.00000000       0.00000000
H        0.00000000       1.62013441       7.29121606        2       1.00000000       0.00000000       0.00000000       0.00000000       0.00000000       0.00000000       0.00000000
H        2.80615512       1.62013441       7.29121606        2       1.00000000       0.00000000       0.00000000       0.00000000       0.00000000       0.00000000       0.00000000
H        1.40307756       4.05033604       7.29121606        2       1.00000000       0.00000000       0.00000000       0.00000000       0.00000000       0.00000000       0.00000000
H        4.20923268       4.05033604       7.29121606        2       1.00000000       0.00000000       0.00000000       0.00000000       0.00000000       0.00000000       0.00000000
H        0.00000000       0.00000000       9.58243212        1       1.00000000       0.00000000       0.00000000       0.00000000       0.00000000       0.00000000       0.00000000
H        2.80615512       0.00000000       9.58243212        1       1.00000000       0.00000000       0.00000000       0.00000000       0.00000000       0.00000000       0.00000000
H        1.40307756       2.43020162       9.58243212        1       1.00000000       0.00000000       0.00000000       0.00000000       0.00000000       0.00000000       0.00000000
H        4.20923268       2.43020162       9.58243212        1       1.00000000       0.00000000       0.00000000       0.00000000       0.00000000       0.00000000       0.00000000
H        4.19930360       4.05019176      11.81113183        0       1.00000000       0.00000264       0.00000188       0.00000678      -0.00000359       0.00000625       0.00000073
H        2.80615401       1.62013517       2.77136715        0       1.00000000      -0.00000234      -0.00000147       0.00000148       0.00000389      -0.00000279       0.00000186
H        0.00992726       1.61998785      11.81113157        0       1.00000000      -0.00000076       0.00000200       0.00000371       0.00000628      -0.00000754      -0.00000167
H        4.20923312       4.05033411       2.77136638        0       1.00000000       0.00000359       0.00000315       0.00000099       0.00000414       0.00000010       0.00000496
H        1.40307414       4.05033306       2.77136518        0       1.00000000       0.00000324       0.00000114      -0.00000215       0.00000506       0.00000193      -0.00000435
H        5.61231186       1.62013327       2.77136821        0       1.00000000       0.00000136      -0.00000067      -0.00000716      -0.00001503      -0.00000082       0.00000247
18
Lattice="5.612310241546866 0.0 0.0 0.0 4.860403243099165 0.0 0.0 0.0 14.582432123328676" Properties=species:S:1:pos:R:3:tags:I:1:masses:R:1:momenta:R:3:forces:R:3 KEmax=23.26679191048647 iter=169300 volume=397.78090899293073 ns_energy=-11.638031574890098 last_walked_iter_clone=169244 energy=-11.638031574973182 stress="0.02259926071291888 5.416585052978453e-08 -4.18817966480238e-08 5.416585052978453e-08 0.022713659690923888 -6.515425574269551e-09 -4.18817966480238e-08 -6.515425574269551e-09 0.012286354532859058" pbc="T T F"
H        1.40307756       0.81006721       5.00000000        3       1.00000000       0.00000000       0.00000000       0.00000000       0.00000000       0.00000000       0.00000000
H        4.20923268       0.81006721       5.00000000        3       1.00000000       0.00000000       0.00000000       0.00000000       0.00000000       0.00000000       0.00000000
H        0.00000000       3.24026883       5.00000000        3       1.00000000       0.00000000       0.00000000       0.00000000       0.00000000       0.00000000       0.00000000
H        2.80615512       3.24026883       5.00000000        3       1.00000000       0.00000000       0.00000000       0.00000000       0.00000000       0.00000000       0.00000000
H        0.00000000       1.62013441       7.29121606        2       1.00000000       0.00000000       0.00000000       0.00000000       0.00000000       0.00000000       0.00000000
H        2.80615512       1.62013441       7.29121606        2       1.00000000       0.00000000       0.00000000       0.00000000       0.00000000       0.00000000       0.00000000
H        1.40307756       4.05033604       7.29121606        2       1.00000000       0.00000000       0.00000000       0.00000000       0.00000000       0.00000000       0.00000000
H        4.20923268       4.05033604       7.29121606        2       1.00000000       0.00000000       0.00000000       0.00000000       0.00000000       0.00000000       0.00000000
H        0.00000000       0.00000000       9.58243212        1       1.00000000       0.00000000       0.00000000       0.00000000       0.00000000       0.00000000       0.00000000
H        2.80615512       0.00000000       9.58243212        1       1.00000000       0.00000000       0.00000000       0.00000000       0.00000000       0.00000000       0.00000000
H        1.40307756       2.43020162       9.58243212        1       1.00000000       0.00000000       0.00000000       0.00000000       0.00000000       0.00000000       0.00000000
H        4.20923268       2.43020162       9.58243212        1       1.00000000       0.00000000       0.00000000       0.00000000       0.00000000       0.00000000       0.00000000
H        4.19930185       4.05019169      11.81113147        0       1.00000000       0.00000213       0.00000253      -0.00000028      -0.00000359       0.00000625       0.00000073
H        2.80615755       1.62013060       2.77136645        0       1.00000000       0.00000741      -0.00000110      -0.00000131       0.00000389      -0.00000279       0.00000186
H        0.00992716       1.61998637      11.81112865        0       1.00000000       0.00000048      -0.00000351      -0.00000204       0.00000628      -0.00000754      -0.00000167
H        4.20923264       4.05033344       2.77136338        0       1.00000000       0.00000092      -0.00000272      -0.00000141       0.00000414       0.00000010       0.00000496
H        1.40307549       4.05033264       2.77136903        0       1.00000000      -0.00000388       0.00000509      -0.00000193       0.00000506       0.00000193      -0.00000435
H        5.61231136       1.62013342       2.77136795        0       1.00000000       0.00000019       0.00000112      -0.00000589      -0.00001503      -0.00000082       0.00000247
18
Lattice="5.612310241546866 0.0 0.0 0.0 4.860403243099165 0.0 0.0 0.0 14.582432123328676" Properties=species:S:1:pos:R:3:tags:I:1:masses:R:1:momenta:R:3:forces:R:3 KEmax=23.26679191048647 iter=169300 volume=397.78090899293073 ns_energy=-11.638031574894027 last_walked_iter_clone=168870 energy=-11.638031574973182 stress="0.02259926071291888 5.416585052978453e-08 -4.18817966480238e-08 5.416585052978453e-08 0.022713659690923888 -6.515425574269551e-09 -4.18817966480238e-08 -6.515425574269551e-09 0.012286354532859058" pbc="T T F"
H        1.40307756       0.81006721       5.00000000        3       1.00000000       0.00000000       0.00000000       0.00000000       0.00000000       0.00000000       0.00000000
H        4.20923268       0.81006721       5.00000000        3       1.00000000       0.00000000       0.00000000       0.00000000       0.00000000       0.00000000       0.00000000
H        0.00000000       3.24026883       5.00000000        3       1.00000000       0.00000000       0.00000000       0.00000000       0.00000000       0.00000000       0.00000000
H        2.80615512       3.24026883       5.00000000        3       1.00000000       0.00000000       0.00000000       0.00000000       0.00000000       0.00000000       0.00000000
H        0.00000000       1.62013441       7.29121606        2       1.00000000       0.00000000       0.00000000       0.00000000       0.00000000       0.00000000       0.00000000
H        2.80615512       1.62013441       7.29121606        2       1.00000000       0.00000000       0.00000000       0.00000000       0.00000000       0.00000000       0.00000000
H        1.40307756       4.05033604       7.29121606        2       1.00000000       0.00000000       0.00000000       0.00000000       0.00000000       0.00000000       0.00000000
H        4.20923268       4.05033604       7.29121606        2       1.00000000       0.00000000       0.00000000       0.00000000       0.00000000       0.00000000       0.00000000
H        0.00000000       0.00000000       9.58243212        1       1.00000000       0.00000000       0.00000000       0.00000000       0.00000000       0.00000000       0.00000000
H        2.80615512       0.00000000       9.58243212        1       1.00000000       0.00000000       0.00000000       0.00000000       0.00000000       0.00000000       0.00000000
H        1.40307756       2.43020162       9.58243212        1       1.00000000       0.00000000       0.00000000       0.00000000       0.00000000       0.00000000       0.00000000
H        4.20923268       2.43020162       9.58243212        1       1.00000000       0.00000000       0.00000000       0.00000000       0.00000000       0.00000000       0.00000000
H        4.19930367       4.05018845      11.81113165        0       1.00000000       0.00000483      -0.00000283       0.00000500      -0.00000359       0.00000625       0.00000073
H        2.80615388       1.62013587       2.77136827        0       1.00000000      -0.00000200       0.00000301       0.00000374       0.00000389      -0.00000279       0.00000186
H        0.00993057       1.61998472      11.81113247        0       1.00000000      -0.00000194      -0.00000306      -0.00000314       0.00000628      -0.00000754      -0.00000167
H        4.20923216       4.05033754       2.77136443        0       1.00000000      -0.00000168       0.00000412       0.00000167       0.00000414       0.00000010       0.00000496
H        1.40307456       4.05033997       2.77137131        0       1.00000000       0.00000274      -0.00000450       0.00000199       0.00000506       0.00000193      -0.00000435
H       -0.00000114       1.62013960       2.77136789        0       1.00000000      -0.00000047      -0.00000051       0.00000194      -0.00001503      -0.00000082       0.00000247
18
Lattice="5.612310241546866 0.0 0.0 0.0 4.860403243099165 0.0 0.0 0.0 14.582432123328676" Properties=species:S:1:pos:R:3:tags:I:1:masses:R:1:momenta:R:3:forces:R:3 KEmax=23.26679191048647 iter=169300 volume=397.78090899293073 ns_energy=-11.638031574890155 last_walked_iter_clone=169210 energy=-11.638031574973182 stress="0.02259926071291888 5.416585052978453e-08 -4.18817966480238e-08 5.416585052978453e-08 0.022713659690923888 -6.515425574269551e-09 -4.18817966480238e-08 -6.515425574269551e-09 0.012286354532859058" pbc="T T F"
H        1.40307756       0.81006721       5.00000000        3       1.00000000       0.00000000       0.00000000       0.00000000       0.00000000       0.00000000       0.00000000
H        4.20923268       0.81006721       5.00000000        3       1.00000000       0.00000000       0.00000000       0.00000000       0.00000000       0.00000000       0.00000000
H        0.00000000       3.24026883       5.00000000        3       1.00000000       0.00000000       0.00000000       0.00000000       0.00000000       0.00000000       0.00000000
H        2.80615512       3.24026883       5.00000000        3       1.00000000       0.00000000       0.00000000       0.00000000       0.00000000       0.00000000       0.00000000
H        0.00000000       1.62013441       7.29121606        2       1.00000000       0.00000000       0.00000000       0.00000000       0.00000000       0.00000000       0.00000000
H        2.80615512       1.62013441       7.29121606        2       1.00000000       0.00000000       0.00000000       0.00000000       0.00000000       0.00000000       0.00000000
H        1.40307756       4.05033604       7.29121606        2       1.00000000       0.00000000       0.00000000       0.00000000       0.00000000       0.00000000       0.00000000
H        4.20923268       4.05033604       7.29121606        2       1.00000000       0.00000000       0.00000000       0.00000000       0.00000000       0.00000000       0.00000000
H        0.00000000       0.00000000       9.58243212        1       1.00000000       0.00000000       0.00000000       0.00000000       0.00000000       0.00000000       0.00000000
H        2.80615512       0.00000000       9.58243212        1       1.00000000       0.00000000       0.00000000       0.00000000       0.00000000       0.00000000       0.00000000
H        1.40307756       2.43020162       9.58243212        1       1.00000000       0.00000000       0.00000000       0.00000000       0.00000000       0.00000000       0.00000000
H        4.20923268       2.43020162       9.58243212        1       1.00000000       0.00000000       0.00000000       0.00000000       0.00000000       0.00000000       0.00000000
H        4.19930118       4.05018850      11.81113118        0       1.00000000       0.00000289      -0.00000537      -0.00000437      -0.00000359       0.00000625       0.00000073
H        2.80615517       1.62013659       2.77136774        0       1.00000000      -0.00000189       0.00000239      -0.00000138       0.00000389      -0.00000279       0.00000186
H        0.00993323       1.61999327      11.81113112        0       1.00000000      -0.00000100      -0.00000531       0.00000288       0.00000628      -0.00000754      -0.00000167
H        4.20923520       4.05033781       2.77137019        0       1.00000000       0.00000370      -0.00000460       0.00000011       0.00000414       0.00000010       0.00000496
H        1.40308037       4.05033601       2.77136827        0       1.00000000      -0.00000290       0.00000386       0.00000189       0.00000506       0.00000193      -0.00000435
H        0.00000143       1.62013747       2.77136514        0       1.00000000       0.00000206      -0.00000047       0.00000201      -0.00001503      -0.00000082       0.00000247
18
Lattice="5.612310241546866 0.0 0.0 0.0 4.860403243099165 0.0 0.0 0.0 14.582432123328676" Properties=species:S:1:pos:R:3:tags:I:1:masses:R:1:momenta:R:3:forces:R:3 KEmax=23.26679191048647 iter=169300 volume=397.78090899293073 ns_energy=-11.638031574889775 last_walked_iter_clone=168989 energy=-11.638031574973182 stress="0.02259926071291888 5.416585052978453e-08 -4.18817966480238e-08 5.416585052978453e-08 0.022713659690923888 -6.515425574269551e-09 -4.18817966480238e-08 -6.515425574269551e-09 0.012286354532859058" pbc="T T F"
H        1.40307756       0.81006721       5.00000000        3       1.00000000       0.00000000       0.00000000       0.00000000       0.00000000       0.00000000       0.00000000
H        4.20923268       0.81006721       5.00000000        3       1.00000000       0.00000000       0.00000000       0.00000000       0.00000000       0.00000000       0.00000000
H        0.00000000       3.24026883       5.00000000        3       1.00000000       0.00000000       0.00000000       0.00000000       0.00000000       0.00000000       0.00000000
H        2.80615512       3.24026883       5.00000000        3       1.00000000       0.00000000       0.00000000       0.00000000       0.00000000       0.00000000       0.00000000
H        0.00000000       1.62013441       7.29121606        2       1.00000000       0.00000000       0.00000000       0.00000000       0.00000000       0.00000000       0.00000000
H        2.80615512       1.62013441       7.29121606        2       1.00000000       0.00000000       0.00000000       0.00000000       0.00000000       0.00000000       0.00000000
H        1.40307756       4.05033604       7.29121606        2       1.00000000       0.00000000       0.00000000       0.00000000       0.00000000       0.00000000       0.00000000
H        4.20923268       4.05033604       7.29121606        2       1.00000000       0.00000000       0.00000000       0.00000000       0.00000000       0.00000000       0.00000000
H        0.00000000       0.00000000       9.58243212        1       1.00000000       0.00000000       0.00000000       0.00000000       0.00000000       0.00000000       0.00000000
H        2.80615512       0.00000000       9.58243212        1       1.00000000       0.00000000       0.00000000       0.00000000       0.00000000       0.00000000       0.00000000
H        1.40307756       2.43020162       9.58243212        1       1.00000000       0.00000000       0.00000000       0.00000000       0.00000000       0.00000000       0.00000000
H        4.20923268       2.43020162       9.58243212        1       1.00000000       0.00000000       0.00000000       0.00000000       0.00000000       0.00000000       0.00000000
H        4.19929962       4.05018682      11.81113235        0       1.00000000      -0.00000161       0.00000197      -0.00000033      -0.00000359       0.00000625       0.00000073
H        2.80615801       1.62013551       2.77136789        0       1.00000000      -0.00000384      -0.00000166      -0.00000253       0.00000389      -0.00000279       0.00000186
H        0.00992935       1.61998753      11.81112667        0       1.00000000      -0.00000180      -0.00000502      -0.00000551       0.00000628      -0.00000754      -0.00000167