18
Lattice="5.612310241546866 0.0 0.0 0.0 4.860403243099165 0.0 0.0 0.0 24.582432123328676" Properties=species:S:1:pos:R:3:tags:I:1:masses:R:1:momenta:R:3:forces:R:3 KEmax=23.26679191048647 iter=119999 volume=670.5618179858607 ns_energy=-11.6380315750623 last_walked_iter_clone=116889 energy=-11.638028971525895 stress="0.02259417149480284 -1.67682745291845e-08 4.279920399737144e-09 -1.67682745291845e-08 0.022708576665359952 1.3173691425168607e-08 4.279920399737144e-09 1.3173691425168607e-08 0.012283550389432388" pbc="T T F"
H        1.40307756       0.81006721      10.00000000        3       1.00000000       0.00000000       0.00000000       0.00000000       0.00000000       0.00000000       0.00000000
H        4.20923268       0.81006721      10.00000000        3       1.00000000       0.00000000       0.00000000       0.00000000       0.00000000       0.00000000       0.00000000
H        0.00000000       3.24026883      10.00000000        3       1.00000000       0.00000000       0.00000000       0.00000000       0.00000000       0.00000000       0.00000000
H        2.80615512       3.24026883      10.00000000        3       1.00000000       0.00000000       0.00000000       0.00000000       0.00000000       0.00000000       0.00000000
H        0.00000000       1.62013441      12.29121606        2       1.00000000       0.00000000       0.00000000       0.00000000       0.00000000       0.00000000       0.00000000
H        2.80615512       1.62013441      12.29121606        2       1.00000000       0.00000000       0.00000000       0.00000000       0.00000000       0.00000000       0.00000000
H        1.40307756       4.05033604      12.29121606        2       1.00000000       0.00000000       0.00000000       0.00000000       0.00000000       0.00000000       0.00000000
H        4.20923268       4.05033604      12.29121606        2       1.00000000       0.00000000       0.00000000       0.00000000       0.00000000       0.00000000       0.00000000
H        0.00000000       0.00000000      14.58243212        1       1.00000000       0.00000000       0.00000000       0.00000000       0.00000000       0.00000000       0.00000000
H        2.80615512       0.00000000      14.58243212        1       1.00000000       0.00000000       0.00000000       0.00000000       0.00000000       0.00000000       0.00000000
H        1.40307756       2.43020162      14.58243212        1       1.00000000       0.00000000       0.00000000       0.00000000       0.00000000       0.00000000       0.00000000
H        4.20923268       2.43020162      14.58243212        1       1.00000000       0.00000000       0.00000000       0.00000000       0.00000000       0.00000000       0.00000000
H        1.40307723       4.05033602       7.77136699        0       1.00000000      -0.00000039      -0.00000057       0.00000039       0.00089841      -0.00231753      -0.00000118
H       -0.00000075       1.62013439       7.77136735        0       1.00000000      -0.00000072       0.00000057       0.00000133       0.00181221       0.00229741      -0.00000002
H        0.00993176       1.61998751      16.81113062        0       1.00000000      -0.00000012       0.00000143       0.00000035      -0.00000043       0.00000271      -0.00000177
H        4.20923243       4.05033606       7.77136662        0       1.00000000      -0.00000071      -0.00000006      -0.00000018      -0.00089405      -0.00234552      -0.00000071
H        4.19930107       4.05018952      16.81113054        0       1.00000000      -0.00000076      -0.00000030       0.00000114      -0.00000010      -0.00000352       0.00000292
H        2.80615416       1.62013393       7.77136717        0       1.00000000       0.00000032      -0.00000023      -0.00000067      -0.00181662       0.00236672      -0.00000112
18
Lattice="5.612310241546866 0.0 0.0 0.0 4.860403243099165 0.0 0.0 0.0 24.582432123328676" Properties=species:S:1:pos:R:3:tags:I:1:masses:R:1:momenta:R:3:forces:R:3 KEmax=23.26679191048647 iter=119999 volume=670.5618179858607 ns_energy=-11.638031575062088 last_walked_iter_clone=119062 energy=-11.638028971525895 stress="0.02259417149480284 -1.67682745291845e-08 4.279920399737144e-09 -1.67682745291845e-08 0.022708576665359952 1.3173691425168607e-08 4.279920399737144e-09 1.3173691425168607e-08 0.012283550389432388" pbc="T T F"
H        1.40307756       0.81006721      10.00000000        3       1.00000000       0.00000000       0.00000000       0.00000000       0.00000000       0.00000000       0.00000000
H        4.20923268       0.81006721      10.00000000        3       1.00000000       0.00000000       0.00000000       0.00000000       0.00000000       0.00000000       0.00000000
H        0.00000000       3.24026883      10.00000000        3       1.00000000       0.00000000       0.00000000       0.00000000       0.00000000       0.00000000       0.00000000
H        2.80615512       3.24026883      10.00000000        3       1.00000000       0.00000000       0.00000000       0.00000000       0.00000000       0.00000000       0.00000000
H        0.00000000       1.62013441      12.29121606        2       1.00000000       0.00000000       0.00000000       0.00000000       0.00000000       0.00000000       0.00000000
H        2.80615512       1.62013441      12.29121606        2       1.00000000       0.00000000       0.00000000       0.00000000       0.00000000       0.00000000       0.00000000
H        1.40307756       4.05033604      12.29121606        2       1.00000000       0.00000000       0.00000000       0.00000000       0.00000000       0.00000000       0.00000000
H        4.20923268       4.05033604      12.29121606        2       1.00000000       0.00000000       0.00000000       0.00000000       0.00000000       0.00000000       0.00000000
H        0.00000000       0.00000000      14.58243212        1       1.00000000       0.00000000       0.00000000       0.00000000       0.00000000       0.00000000       0.00000000
H        2.80615512       0.00000000      14.58243212        1       1.00000000       0.00000000       0.00000000       0.00000000       0.00000000       0.00000000       0.00000000
H        1.40307756       2.43020162      14.58243212        1       1.00000000       0.00000000       0.00000000       0.00000000       0.00000000       0.00000000       0.00000000
H        4.20923268       2.43020162      14.58243212        1       1.00000000       0.00000000       0.00000000       0.00000000       0.00000000       0.00000000       0.00000000
H        1.40307755       4.05033607       7.77136686        0       1.00000000       0.00000037       0.00000013       0.00000008       0.00089841      -0.00231753      -0.00000118
H       -0.00000011       1.62013463       7.77136749        0       1.00000000       0.00000022      -0.00000014       0.00000083       0.00181221       0.00229741      -0.00000002
H        0.00993074       1.61998707      16.81112973        0       1.00000000       0.00000058       0.00000123      -0.00000052      -0.00000043       0.00000271      -0.00000177
H        4.20923277       4.05033632       7.77136718        0       1.00000000       0.00000131      -0.00000039      -0.00000010      -0.00089405      -0.00234552      -0.00000071
H        4.19930123       4.05018846      16.81113046        0       1.00000000      -0.00000160       0.00000092      -0.00000003      -0.00000010      -0.00000352       0.00000292
H        2.80615499       1.62013468       7.77136752        0       1.00000000      -0.00000018      -0.00000014      -0.00000122      -0.00181662       0.00236672      -0.00000112
18
Lattice="5.612310241546866 0.0 0.0 0.0 4.860403243099165 0.0 0.0 0.0 24.582432123328676" Properties=species:S:1:pos:R:3:tags:I:1:masses:R:1:momenta:R:3:forces:R:3 KEmax=23.26679191048647 iter=119999 volume=670.5618179858607 ns_energy=-11.638031575062112 last_walked_iter_clone=119979 energy=-11.638028971525895 stress="0.02259417149480284 -1.67682745291845e-08 4.279920399737144e-09 -1.67682745291845e-08 0.022708576665359952 1.3173691425168607e-08 4.279920399737144e-09 1.3173691425168607e-08 0.012283550389432388" pbc="T T F"
H        1.40307756       0.81006721      10.00000000        3       1.00000000       0.00000000       0.00000000       0.00000000       0.00000000       0.00000000       0.00000000
H        4.20923268       0.81006721      10.00000000        3       1.00000000       0.00000000       0.00000000       0.00000000       0.00000000       0.00000000       0.00000000
H        0.00000000       3.24026883      10.00000000        3       1.00000000       0.00000000       0.00000000       0.00000000       0.00000000       0.00000000       0.00000000
H        2.80615512       3.24026883      10.00000000        3       1.00000000       0.00000000       0.00000000       0.00000000       0.00000000       0.00000000       0.00000000
H        0.00000000       1.62013441      12.29121606        2       1.00000000       0.00000000       0.00000000       0.00000000       0.00000000       0.00000000       0.00000000
H        2.80615512       1.62013441      12.29121606        2       1.00000000       0.00000000       0.00000000       0.00000000       0.00000000       0.00000000       0.00000000
H        1.40307756       4.05033604      12.29121606        2       1.00000000       0.00000000       0.00000000       0.00000000       0.00000000       0.00000000       0.00000000
H        4.20923268       4.05033604      12.29121606        2       1.00000000       0.00000000       0.00000000       0.00000000       0.00000000       0.00000000       0.00000000
H        0.00000000       0.00000000      14.58243212        1       1.00000000       0.00000000       0.00000000       0.00000000       0.00000000       0.00000000       0.00000000
H        2.80615512       0.00000000      14.58243212        1       1.00000000       0.00000000       0.00000000       0.00000000       0.00000000       0.00000000       0.00000000
H        1.40307756       2.43020162      14.58243212        1       1.00000000       0.00000000       0.00000000       0.00000000       0.00000000       0.00000000       0.00000000
H        4.20923268       2.43020162      14.58243212        1       1.00000000       0.00000000       0.00000000       0.00000000       0.00000000       0.00000000       0.00000000
H        1.40307755       4.05033584       7.77136724        0       1.00000000       0.00000092       0.00000045       0.00000148       0.00089841      -0.00231753      -0.00000118
H        0.00000010       1.62013426       7.77136786        0       1.00000000       0.00000032       0.00000067      -0.00000120       0.00181221       0.00229741      -0.00000002
H        0.00993149       1.61998823      16.81113101        0       1.00000000       0.00000118      -0.00000038      -0.00000055      -0.00000043       0.00000271      -0.00000177
H        4.20923280       4.05033620       7.77136688        0       1.00000000      -0.00000003       0.00000046      -0.00000029      -0.00089405      -0.00234552      -0.00000071
H        4.19930154       4.05018982      16.81113057        0       1.00000000      -0.00000050       0.00000100      -0.00000048      -0.00000010      -0.00000352       0.00000292
H        2.80615471       1.62013470       7.77136715        0       1.00000000      -0.00000051      -0.00000063      -0.00000043      -0.00181662       0.00236672      -0.00000112
18
Lattice="5.612310241546866 0.0 0.0 0.0 4.860403243099165 0.0 0.0 0.0 24.582432123328676" Properties=species:S:1:pos:R:3:tags:I:1:masses:R:1:momenta:R:3:forces:R:3 KEmax=23.26679191048647 iter=119999 volume=670.5618179858607 ns_energy=-11.638031575062419 last_walked_iter_clone=119519 energy=-11.638028971525895 stress="0.02259417149480284 -1.67682745291845e-08 4.279920399737144e-09 -1.67682745291845e-08 0.022708576665359952 1.3173691425168607e-08 4.279920399737144e-09 1.3173691425168607e-08 0.012283550389432388" pbc="T T F"
H        1.40307756       0.81006721      10.00000000        3       1.00000000       0.00000000       0.00000000       0.00000000       0.00000000       0.00000000       0.00000000
H        4.20923268       0.81006721      10.00000000        3       1.00000000       0.00000000       0.00000000       0.00000000       0.00000000       0.00000000       0.00000000
H        0.00000000       3.24026883      10.00000000        3       1.00000000       0.00000000       0.00000000       0.00000000       0.00000000       0.00000000       0.00000000
H        2.80615512       3.24026883      10.00000000        3       1.00000000       0.00000000       0.00000000       0.00000000       0.00000000       0.00000000       0.00000000
H        0.00000000       1.62013441      12.29121606        2       1.00000000       0.00000000       0.00000000       0.00000000       0.00000000       0.00000000       0.00000000
H        2.80615512       1.62013441      12.29121606        2       1.00000000       0.00000000       0.00000000       0.00000000       0.00000000       0.00000000       0.00000000
H        1.40307756       4.05033604      12.29121606        2       1.00000000       0.00000000       0.00000000       0.00000000       0.00000000       0.00000000       0.00000000
H        4.20923268       4.05033604      12.29121606        2       1.00000000       0.00000000       0.00000000       0.00000000       0.00000000       0.00000000       0.00000000
H        0.00000000       0.00000000      14.58243212        1       1.00000000       0.00000000       0.00000000       0.00000000       0.00000000       0.00000000       0.00000000
H        2.80615512       0.00000000      14.58243212        1       1.00000000       0.00000000       0.00000000       0.00000000       0.00000000       0.00000000       0.00000000
H        1.40307756       2.43020162      14.58243212        1       1.00000000       0.00000000       0.00000000       0.00000000       0.00000000       0.00000000       0.00000000
H        4.20923268       2.43020162      14.58243212        1       1.00000000       0.00000000       0.00000000       0.00000000       0.00000000       0.00000000       0.00000000
H        1.40307716       4.05033649       7.77136765        0       1.00000000       0.00000037       0.00000083       0.00000009       0.00089841      -0.00231753      -0.00000118
H       -0.00000052       1.62013492       7.77136679        0       1.00000000       0.00000048      -0.00000011       0.00000022       0.00181221       0.00229741      -0.00000002
H        0.00993133       1.61998809      16.81113110        0       1.00000000       0.00000027       0.00000061      -0.00000111      -0.00000043       0.00000271      -0.00000177
H        4.20923227       4.05033688       7.77136691        0       1.00000000      -0.00000110      -0.00000102      -0.00000023      -0.00089405      -0.00234552      -0.00000071
H        4.19930160       4.05018940      16.81113113        0       1.00000000       0.00000068       0.00000027      -0.00000012      -0.00000010      -0.00000352       0.00000292
H        2.80615446       1.62013498       7.77136750        0       1.00000000       0.00000049      -0.00000026       0.00000138      -0.00181662       0.00236672      -0.00000112
18
Lattice="5.612310241546866 0.0 0.0 0.0 4.860403243099165 0.0 0.0 0.0 24.582432123328676" Properties=species:S:1:pos:R:3:tags:I:1:masses:R:1:momenta:R:3:forces:R:3 KEmax=23.26679191048647 iter=119999 volume=670.5618179858607 ns_energy=-11.63803157506294 last_walked_iter_clone=119380 energy=-11.638028971525895 stress="0.02259417149480284 -1.67682745291845e-08 4.279920399737144e-09 -1.67682745291845e-08 0.022708576665359952 1.3173691425168607e-08 4.279920399737144e-09 1.3173691425168607e-08 0.012283550389432388" pbc="T T F"
H        1.40307756       0.81006721      10.00000000        3       1.00000000       0.00000000       0.00000000       0.00000000       0.00000000       0.00000000       0.00000000
H        4.20923268       0.81006721      10.00000000        3       1.00000000       0.00000000       0.00000000       0.00000000       0.00000000       0.00000000       0.00000000
H        0.00000000       3.24026883      10.00000000        3       1.00000000       0.00000000       0.00000000       0.00000000       0.00000000       0.00000000       0.00000000
H        2.80615512       3.24026883      10.00000000        3       1.00000000       0.00000000       0.00000000       0.00000000       0.00000000       0.00000000       0.00000000
H        0.00000000       1.62013441      12.29121606        2       1.00000000       0.00000000       0.00000000       0.00000000       0.00000000       0.00000000       0.00000000
H        2.80615512       1.62013441      12.29121606        2       1.00000000       0.00000000       0.00000000       0.00000000       0.00000000       0.00000000       0.00000000
H        1.40307756       4.05033604      12.29121606        2       1.00000000       0.00000000       0.00000000       0.00000000       0.00000000       0.00000000       0.00000000
H        4.20923268       4.05033604      12.29121606        2       1.00000000       0.00000000       0.00000000       0.00000000       0.00000000       0.00000000       0.00000000
H        0.00000000       0.00000000      14.58243212        1       1.00000000       0.00000000       0.00000000       0.00000000       0.00000000       0.00000000       0.00000000
H        2.80615512       0.00000000      14.58243212        1       1.00000000       0.00000000       0.00000000       0.00000000       0.00000000       0.00000000       0.00000000
H        1.40307756       2.43020162      14.58243212        1       1.00000000       0.00000000       0.00000000       0.00000000       0.00000000       0.00000000       0.00000000
H        4.20923268       2.43020162      14.58243212        1       1.00000000       0.00000000       0.00000000       0.00000000       0.00000000       0.00000000       0.00000000
H        1.40307756       4.05033621       7.77136686        0       1.00000000       0.00000032       0.00000060      -0.00000181       0.00089841      -0.00231753      -0.00000118
H       -0.00000005       1.62013463       7.77136749        0       1.00000000       0.00000004      -0.00000012       0.00000016       0.00181221       0.00229741      -0.00000002
H        0.00993071       1.61998705      16.81112972        0       1.00000000       0.00000051       0.00000009       0.00000112      -0.00000043       0.00000271      -0.00000177
H        4.20923285       4.05033624       7.77136719        0       1.00000000      -0.00000100       0.00000008       0.00000010      -0.00089405      -0.00234552      -0.00000071
H        4.19930129       4.05018847      16.81113045        0       1.00000000      -0.00000042      -0.00000010       0.00000029      -0.00000010      -0.00000352       0.00000292
H        2.80615502       1.62013456       7.77136753        0       1.00000000       0.00000112       0.00000060       0.00000003      -0.00181662       0.00236672      -0.00000112
18
Lattice="5.612310241546866 0.0 0.0 0.0 4.860403243099165 0.0 0.0 0.0 24.582432123328676" Properties=species:S:1:pos:R:3:tags:I:1:masses:R:1:momenta:R:3:forces:R:3 KEmax=23.26679191048647 iter=119999 volume=670.5618179858607 ns_energy=-11.638031575062307 last_walked_iter_clone=119537 energy=-11.638028971525895 stress="0.02259417149480284 -1.67682745291845e-08 4.279920399737144e-09 -1.67682745291845e-08 0.022708576665359952 1.3173691425168607e-08 4.279920399737144e-09 1.3173691425168607e-08 0.012283550389432388" pbc="T T F"
H        1.40307756       0.81006721      10.00000000        3       1.00000000       0.00000000       0.00000000       0.00000000       0.00000000       0.00000000       0.00000000
H        4.20923268       0.81006721      10.00000000        3       1.00000000       0.00000000       0.00000000       0.00000000       0.00000000       0.00000000       0.00000000
H        0.00000000       3.24026883      10.00000000        3       1.00000000       0.00000000       0.00000000       0.00000000       0.00000000       0.00000000       0.00000000
H        2.80615512       3.24026883      10.00000000        3       1.00000000       0.00000000       0.00000000       0.00000000       0.00000000       0.00000000       0.00000000
H        0.00000000       1.62013441      12.29121606        2       1.00000000       0.00000000       0.00000000       0.00000000       0.00000000       0.00000000       0.00000000
H        2.80615512       1.62013441      12.29121606        2       1.00000000       0.00000000       0.00000000       0.00000000       0.00000000       0.00000000       0.00000000
H        1.40307756       4.05033604      12.29121606        2       1.00000000       0.00000000       0.00000000       0.00000000       0.00000000       0.00000000       0.00000000
H        4.20923268       4.05033604      12.29121606        2       1.00000000       0.00000000       0.00000000       0.00000000       0.00000000       0.00000000       0.00000000
H        0.00000000       0.00000000      14.58243212        1       1.00000000       0.00000000       0.00000000       0.00000000       0.00000000       0.00000000       0.00000000
H        2.80615512       0.00000000      14.58243212        1       1.00000000       0.00000000       0.00000000       0.00000000       0.00000000       0.00000000       0.00000000
H        1.40307756       2.43020162      14.58243212        1       1.00000000       0.00000000       0.00000000       0.00000000       0.00000000       0.00000000       0.00000000
H        4.20923268       2.43020162      14.58243212        1       1.00000000       0.00000000       0.00000000       0.00000000       0.00000000       0.00000000       0.00000000
H        1.40307740       4.05033612       7.77136665        0       1.00000000      -0.00000035      -0.00000136      -0.00000061       0.00089841      -0.00231753      -0.00000118
H        5.61230951       1.62013401       7.77136722        0       1.00000000       0.00000044       0.00000009      -0.00000080       0.00181221       0.00229741      -0.00000002
H        0.00993105       1.61998693      16.81113029        0       1.00000000       0.00000043      -0.00000040      -0.00000057      -0.00000043       0.00000271      -0.00000177
H        4.20923230       4.05033593       7.77136733        0       1.00000000      -0.00000059      -0.00000068      -0.00000040      -0.00089405      -0.00234552      -0.00000071
H        4.19930044       4.05018903      16.81113060        0       1.00000000      -0.00000087       0.00000090      -0.00000019      -0.00000010      -0.00000352       0.00000292
H        2.80615497       1.62013419       7.77136645        0       1.00000000      -0.00000053       0.00000054       0.00000055      -0.00181662       0.00236672      -0.00000112
18
Lattice="5.612310241546866 0.0 0.0 0.0 4.860403243099165 0.0 0.0 0.0 24.582432123328676" Properties=species:S:1:pos:R:3:tags:I:1:masses:R:1:momenta:R:3:forces:R:3 KEmax=23.26679191048647 iter=119999 volume=670.5618179858607 ns_energy=-11.638031575062133 last_walked_iter_clone=119981 energy=-11.638028971525895 stress="0.02259417149480284 -1.67682745291845e-08 4.279920399737144e-09 -1.67682745291845e-08 0.022708576665359952 1.3173691425168607e-08 4.279920399737144e-09 1.3173691425168607e-08 0.012283550389432388" pbc="T T F"
H        1.40307756       0.81006721      10.00000000        3       1.00000000       0.00000000       0.00000000       0.00000000       0.00000000       0.00000000       0.00000000
H        4.20923268       0.81006721      10.00000000        3       1.00000000       0.00000000       0.00000000       0.00000000       0.00000000       0.00000000       0.00000000
H        0.00000000       3.24026883      10.00000000        3       1.00000000       0.00000000       0.00000000       0.00000000       0.00000000       0.00000000       0.00000000
H        2.80615512       3.24026883      10.00000000        3       1.00000000       0.00000000       0.00000000       0.00000000       0.00000000       0.00000000       0.00000000
H        0.00000000       1.62013441      12.29121606        2       1.00000000       0.00000000       0.00000000       0.00000000       0.00000000       0.00000000       0.00000000
H        2.80615512       1.62013441      12.29121606        2       1.00000000       0.00000000       0.00000000       0.00000000       0.00000000       0.00000000       0.00000000
H        1.40307756       4.05033604      12.29121606        2       1.00000000       0.00000000       0.00000000       0.00000000       0.00000000       0.00000000       0.00000000
H        4.20923268       4.05033604      12.29121606        2       1.00000000       0.00000000       0.00000000       0.00000000       0.00000000       0.00000000       0.00000000
H        0.00000000       0.00000000      14.58243212        1       1.00000000       0.00000000       0.00000000       0.00000000       0.00000000       0.00000000       0.00000000
H        2.80615512       0.00000000      14.58243212        1       1.00000000       0.00000000       0.00000000       0.00000000       0.00000000       0.00000000       0.00000000
H        1.40307756       2.43020162      14.58243212        1       1.00000000       0.00000000       0.00000000       0.00000000       0.00000000       0.00000000       0.00000000
H        4.20923268       2.43020162      14.58243212        1       1.00000000       0.00000000       0.00000000       0.00000000       0.00000000       0.00000000       0.00000000
H        1.40307756       4.05033604       7.77136687        0       1.00000000       0.00000001       0.00000087      -0.00000190       0.00089841      -0.00231753      -0.00000118
H        5.61231015       1.62013459       7.77136749        0       1.00000000       0.00000020      -0.00000041      -0.00000006       0.00181221       0.00229741      -0.00000002
H        0.00993077       1.61998704      16.81112971        0       1.00000000      -0.00000146      -0.00000038      -0.00000027      -0.00000043       0.00000271      -0.00000177
H        4.20923275       4.05033632       7.77136718        0       1.00000000      -0.00000050       0.00000053       0.00000062      -0.00089405      -0.00234552      -0.00000071
H        4.19930122       4.05018845      16.81113050        0       1.00000000      -0.00000065       0.00000027       0.00000045      -0.00000010      -0.00000352       0.00000292
H        2.80615496       1.62013476       7.77136752        0       1.00000000      -0.00000016       0.00000017       0.00000066      -0.00181662       0.00236672      -0.00000112
18
Lattice="5.612310241546866 0.0 0.0 0.0 4.860403243099165 0.0 0.0 0.0 24.582432123328676" Properties=species:S:1:pos:R:3:tags:I:1:masses:R:1:momenta:R:3:forces:R:3 KEmax=23.26679191048647 iter=119999 volume=670.5618179858607 ns_energy=-11.638031575062085 last_walked_iter_clone=119694 energy=-11.638028971525895 stress="0.02259417149480284 -1.67682745291845e-08 4.279920399737144e-09 -1.67682745291845e-08 0.022708576665359952 1.3173691425168607e-08 4.279920399737144e-09 1.3173691425168607e-08 0.012283550389432388" pbc="T T F"
H        1.40307756       0.81006721      10.00000000        3       1.00000000       0.00000000       0.00000000       0.00000000       0.00000000       0.00000000       0.00000000
H        4.20923268       0.81006721      10.00000000        3       1.00000000       0.00000000       0.00000000       0.00000000       0.00000000       0.00000000       0.00000000
H        0.00000000       3.24026883      10.00000000        3       1.00000000       0.00000000       0.00000000       0.00000000       0.00000000       0.00000000       0.00000000
H        2.80615512       3.24026883      10.00000000        3       1.00000000       0.00000000       0.00000000       0.00000000       0.00000000       0.00000000       0.00000000
H        0.00000000       1.62013441      12.29121606        2       1.00000000       0.00000000       0.00000000       0.00000000       0.00000000       0.00000000       0.00000000
H        2.80615512       1.62013441      12.29121606        2       1.00000000       0.00000000       0.00000000       0.00000000       0.00000000       0.00000000       0.00000000
H        1.40307756       4.05033604      12.29121606        2       1.00000000       0.00000000       0.00000000       0.00000000       0.00000000       0.00000000       0.00000000
H        4.20923268       4.05033604      12.29121606        2       1.00000000       0.00000000       0.00000000       0.00000000       0.00000000       0.00000000       0.00000000
H        0.00000000       0.00000000      14.58243212        1       1.00000000       0.00000000       0.00000000       0.00000000       0.00000000       0.00000000       0.00000000
H        2.80615512       0.00000000      14.58243212        1       1.00000000       0.00000000       0.00000000       0.00000000       0.00000000       0.00000000       0.00000000
H        1.40307756       2.43020162      14.58243212        1       1.00000000       0.00000000       0.00000000       0.00000000       0.00000000       0.00000000       0.00000000
H        4.20923268       2.43020162      14.58243212        1       1.00000000       0.00000000       0.00000000       0.00000000       0.00000000       0.00000000       0.00000000
H        1.40307650       4.05033609       7.77136658        0       1.00000000      -0.00000101      -0.00000050      -0.00000025       0.00089841      -0.00231753      -0.00000118
H        5.61230935       1.62013449       7.77136754        0       1.00000000       0.00000007      -0.00000049       0.00000025       0.00181221       0.00229741      -0.00000002
H        0.00993113       1.61998886      16.81113068        0       1.00000000       0.00000054       0.00000045       0.00000044      -0.00000043       0.00000271      -0.00000177