18
Lattice="5.612310241546866 0.0 0.0 0.0 4.860403243099165 0.0 0.0 0.0 24.582432123328676" Properties=species:S:1:pos:R:3:tags:I:1:masses:R:1:momenta:R:3:forces:R:3 KEmax=23.26679191048647 iter=90097 volume=670.5618179858607 ns_energy=-11.638031574999815 last_walked_iter_clone=89994 energy=-11.638031575026146 stress="0.022594246105169274 2.2931912494180305e-08 -1.2028067816078666e-08 2.2931912494180305e-08 0.022708652116047418 -3.1417008140718244e-09 -1.2028067816078666e-08 -3.1417008140718244e-09 0.01228349331660094" pbc="T T F"
H        1.40307756       0.81006721      10.00000000        3       1.00000000       0.00000000       0.00000000       0.00000000       0.00000000       0.00000000       0.00000000
H        4.20923268       0.81006721      10.00000000        3       1.00000000       0.00000000       0.00000000       0.00000000       0.00000000       0.00000000       0.00000000
H        0.00000000       3.24026883      10.00000000        3       1.00000000       0.00000000       0.00000000       0.00000000       0.00000000       0.00000000       0.00000000
H        2.80615512       3.24026883      10.00000000        3       1.00000000       0.00000000       0.00000000       0.00000000       0.00000000       0.00000000       0.00000000
H        0.00000000       1.62013441      12.29121606        2       1.00000000       0.00000000       0.00000000       0.00000000       0.00000000       0.00000000       0.00000000
H        2.80615512       1.62013441      12.29121606        2       1.00000000       0.00000000       0.00000000       0.00000000       0.00000000       0.00000000       0.00000000
H        1.40307756       4.05033604      12.29121606        2       1.00000000       0.00000000       0.00000000       0.00000000       0.00000000       0.00000000       0.00000000
H        4.20923268       4.05033604      12.29121606        2       1.00000000       0.00000000       0.00000000       0.00000000       0.00000000       0.00000000       0.00000000
H        0.00000000       0.00000000      14.58243212        1       1.00000000       0.00000000       0.00000000       0.00000000       0.00000000       0.00000000       0.00000000
H        2.80615512       0.00000000      14.58243212        1       1.00000000       0.00000000       0.00000000       0.00000000       0.00000000       0.00000000       0.00000000
H        1.40307756       2.43020162      14.58243212        1       1.00000000       0.00000000       0.00000000       0.00000000       0.00000000       0.00000000       0.00000000
H        4.20923268       2.43020162      14.58243212        1       1.00000000       0.00000000       0.00000000       0.00000000       0.00000000       0.00000000       0.00000000
H        1.40307929       4.05033767       7.77136766        0       1.00000000       0.00000273       0.00000066      -0.00000140      -0.00000593       0.00000667      -0.00000261
H        0.00000266       1.62013456       7.77136605        0       1.00000000      -0.00000003      -0.00000039       0.00000334      -0.00000226      -0.00000764      -0.00000296
H        0.00992947       1.61998597      16.81112877        0       1.00000000       0.00000314       0.00000159       0.00000419       0.00000143      -0.00000251       0.00000064
H        4.20923407       4.05033556       7.77136722        0       1.00000000       0.00000098       0.00000187      -0.00000032       0.00000321       0.00000074      -0.00000546
H        4.19929950       4.05018844      16.81113175        0       1.00000000       0.00000073       0.00000164      -0.00000467       0.00000063       0.00000448      -0.00000278
H        2.80615645       1.62013452       7.77136738        0       1.00000000      -0.00000232       0.00000245      -0.00000148       0.00000571       0.00000227      -0.00000153
18
Lattice="5.612310241546866 0.0 0.0 0.0 4.860403243099165 0.0 0.0 0.0 24.582432123328676" Properties=species:S:1:pos:R:3:tags:I:1:masses:R:1:momenta:R:3:forces:R:3 KEmax=23.26679191048647 iter=90097 volume=670.5618179858607 ns_energy=-11.638031574998129 last_walked_iter_clone=89949 energy=-11.638031575026146 stress="0.022594246105169274 2.2931912494180305e-08 -1.2028067816078666e-08 2.2931912494180305e-08 0.022708652116047418 -3.1417008140718244e-09 -1.2028067816078666e-08 -3.1417008140718244e-09 0.01228349331660094" pbc="T T F"
H        1.40307756       0.81006721      10.00000000        3       1.00000000       0.00000000       0.00000000       0.00000000       0.00000000       0.00000000       0.00000000
H        4.20923268       0.81006721      10.00000000        3       1.00000000       0.00000000       0.00000000       0.00000000       0.00000000       0.00000000       0.00000000
H        0.00000000       3.24026883      10.00000000        3       1.00000000       0.00000000       0.00000000       0.00000000       0.00000000       0.00000000       0.00000000
H        2.80615512       3.24026883      10.00000000        3       1.00000000       0.00000000       0.00000000       0.00000000       0.00000000       0.00000000       0.00000000
H        0.00000000       1.62013441      12.29121606        2       1.00000000       0.00000000       0.00000000       0.00000000       0.00000000       0.00000000       0.00000000
H        2.80615512       1.62013441      12.29121606        2       1.00000000       0.00000000       0.00000000       0.00000000       0.00000000       0.00000000       0.00000000
H        1.40307756       4.05033604      12.29121606        2       1.00000000       0.00000000       0.00000000       0.00000000       0.00000000       0.00000000       0.00000000
H        4.20923268       4.05033604      12.29121606        2       1.00000000       0.00000000       0.00000000       0.00000000       0.00000000       0.00000000       0.00000000
H        0.00000000       0.00000000      14.58243212        1       1.00000000       0.00000000       0.00000000       0.00000000       0.00000000       0.00000000       0.00000000
H        2.80615512       0.00000000      14.58243212        1       1.00000000       0.00000000       0.00000000       0.00000000       0.00000000       0.00000000       0.00000000
H        1.40307756       2.43020162      14.58243212        1       1.00000000       0.00000000       0.00000000       0.00000000       0.00000000       0.00000000       0.00000000
H        4.20923268       2.43020162      14.58243212        1       1.00000000       0.00000000       0.00000000       0.00000000       0.00000000       0.00000000       0.00000000
H        1.40307790       4.05033528       7.77136686        0       1.00000000      -0.00000343      -0.00000170      -0.00000214      -0.00000593       0.00000667      -0.00000261
H        5.61231091       1.62013362       7.77136714        0       1.00000000       0.00000071      -0.00000107      -0.00000148      -0.00000226      -0.00000764      -0.00000296
H        0.00992681       1.61998615      16.81113036        0       1.00000000       0.00000055       0.00000297      -0.00000125       0.00000143      -0.00000251       0.00000064
H        4.20923303       4.05033503       7.77136716        0       1.00000000       0.00000195      -0.00000094      -0.00000067       0.00000321       0.00000074      -0.00000546
H        4.19930506       4.05019122      16.81113009        0       1.00000000      -0.00000213       0.00000096       0.00000102       0.00000063       0.00000448      -0.00000278
H        2.80615653       1.62013230       7.77136739        0       1.00000000      -0.00000036      -0.00000106      -0.00000414       0.00000571       0.00000227      -0.00000153
18
Lattice="5.612310241546866 0.0 0.0 0.0 4.860403243099165 0.0 0.0 0.0 24.582432123328676" Properties=species:S:1:pos:R:3:tags:I:1:masses:R:1:momenta:R:3:forces:R:3 KEmax=23.26679191048647 iter=90097 volume=670.5618179858607 ns_energy=-11.638031574998942 last_walked_iter_clone=90068 energy=-11.638031575026146 stress="0.022594246105169274 2.2931912494180305e-08 -1.2028067816078666e-08 2.2931912494180305e-08 0.022708652116047418 -3.1417008140718244e-09 -1.2028067816078666e-08 -3.1417008140718244e-09 0.01228349331660094" pbc="T T F"
H        1.40307756       0.81006721      10.00000000        3       1.00000000       0.00000000       0.00000000       0.00000000       0.00000000       0.00000000       0.00000000
H        4.20923268       0.81006721      10.00000000        3       1.00000000       0.00000000       0.00000000       0.00000000       0.00000000       0.00000000       0.00000000
H        0.00000000       3.24026883      10.00000000        3       1.00000000       0.00000000       0.00000000       0.00000000       0.00000000       0.00000000       0.00000000
H        2.80615512       3.24026883      10.00000000        3       1.00000000       0.00000000       0.00000000       0.00000000       0.00000000       0.00000000       0.00000000
H        0.00000000       1.62013441      12.29121606        2       1.00000000       0.00000000       0.00000000       0.00000000       0.00000000       0.00000000       0.00000000
H        2.80615512       1.62013441      12.29121606        2       1.00000000       0.00000000       0.00000000       0.00000000       0.00000000       0.00000000       0.00000000
H        1.40307756       4.05033604      12.29121606        2       1.00000000       0.00000000       0.00000000       0.00000000       0.00000000       0.00000000       0.00000000
H        4.20923268       4.05033604      12.29121606        2       1.00000000       0.00000000       0.00000000       0.00000000       0.00000000       0.00000000       0.00000000
H        0.00000000       0.00000000      14.58243212        1       1.00000000       0.00000000       0.00000000       0.00000000       0.00000000       0.00000000       0.00000000
H        2.80615512       0.00000000      14.58243212        1       1.00000000       0.00000000       0.00000000       0.00000000       0.00000000       0.00000000       0.00000000
H        1.40307756       2.43020162      14.58243212        1       1.00000000       0.00000000       0.00000000       0.00000000       0.00000000       0.00000000       0.00000000
H        4.20923268       2.43020162      14.58243212        1       1.00000000       0.00000000       0.00000000       0.00000000       0.00000000       0.00000000       0.00000000
H        1.40307470       4.05033448       7.77136693        0       1.00000000       0.00000078      -0.00000034      -0.00000179      -0.00000593       0.00000667      -0.00000261
H        5.61230848       1.62013498       7.77136821        0       1.00000000      -0.00000286      -0.00000321       0.00000022      -0.00000226      -0.00000764      -0.00000296
H        0.00993307       1.61998897      16.81112855        0       1.00000000      -0.00000043      -0.00000170       0.00000047       0.00000143      -0.00000251       0.00000064
H        4.20923055       4.05033654       7.77136680        0       1.00000000       0.00000138      -0.00000112      -0.00000097       0.00000321       0.00000074      -0.00000546
H        4.19930331       4.05019069      16.81112830        0       1.00000000       0.00000222      -0.00000179       0.00000471       0.00000063       0.00000448      -0.00000278
H        2.80615350       1.62013238       7.77136734        0       1.00000000      -0.00000073      -0.00000176      -0.00000169       0.00000571       0.00000227      -0.00000153
18
Lattice="5.612310241546866 0.0 0.0 0.0 4.860403243099165 0.0 0.0 0.0 24.582432123328676" Properties=species:S:1:pos:R:3:tags:I:1:masses:R:1:momenta:R:3:forces:R:3 KEmax=23.26679191048647 iter=90097 volume=670.5618179858607 ns_energy=-11.638031574998433 last_walked_iter_clone=90059 energy=-11.638031575026146 stress="0.022594246105169274 2.2931912494180305e-08 -1.2028067816078666e-08 2.2931912494180305e-08 0.022708652116047418 -3.1417008140718244e-09 -1.2028067816078666e-08 -3.1417008140718244e-09 0.01228349331660094" pbc="T T F"
H        1.40307756       0.81006721      10.00000000        3       1.00000000       0.00000000       0.00000000       0.00000000       0.00000000       0.00000000       0.00000000
H        4.20923268       0.81006721      10.00000000        3       1.00000000       0.00000000       0.00000000       0.00000000       0.00000000       0.00000000       0.00000000
H        0.00000000       3.24026883      10.00000000        3       1.00000000       0.00000000       0.00000000       0.00000000       0.00000000       0.00000000       0.00000000
H        2.80615512       3.24026883      10.00000000        3       1.00000000       0.00000000       0.00000000       0.00000000       0.00000000       0.00000000       0.00000000
H        0.00000000       1.62013441      12.29121606        2       1.00000000       0.00000000       0.00000000       0.00000000       0.00000000       0.00000000       0.00000000
H        2.80615512       1.62013441      12.29121606        2       1.00000000       0.00000000       0.00000000       0.00000000       0.00000000       0.00000000       0.00000000
H        1.40307756       4.05033604      12.29121606        2       1.00000000       0.00000000       0.00000000       0.00000000       0.00000000       0.00000000       0.00000000
H        4.20923268       4.05033604      12.29121606        2       1.00000000       0.00000000       0.00000000       0.00000000       0.00000000       0.00000000       0.00000000
H        0.00000000       0.00000000      14.58243212        1       1.00000000       0.00000000       0.00000000       0.00000000       0.00000000       0.00000000       0.00000000
H        2.80615512       0.00000000      14.58243212        1       1.00000000       0.00000000       0.00000000       0.00000000       0.00000000       0.00000000       0.00000000
H        1.40307756       2.43020162      14.58243212        1       1.00000000       0.00000000       0.00000000       0.00000000       0.00000000       0.00000000       0.00000000
H        4.20923268       2.43020162      14.58243212        1       1.00000000       0.00000000       0.00000000       0.00000000       0.00000000       0.00000000       0.00000000
H        1.40307757       4.05033628       7.77136691        0       1.00000000      -0.00000346       0.00000026      -0.00000158      -0.00000593       0.00000667      -0.00000261
H        5.61230805       1.62013461       7.77136648        0       1.00000000      -0.00000198      -0.00000295      -0.00000164      -0.00000226      -0.00000764      -0.00000296
H        0.00993214       1.61998702      16.81112919        0       1.00000000       0.00000033       0.00000044       0.00000057       0.00000143      -0.00000251       0.00000064
H        4.20923329       4.05033513       7.77136703        0       1.00000000      -0.00000040       0.00000310       0.00000183       0.00000321       0.00000074      -0.00000546
H        4.19930303       4.05018588      16.81113221        0       1.00000000       0.00000370       0.00000049       0.00000000       0.00000063       0.00000448      -0.00000278
H        2.80615469       1.62013456       7.77136747        0       1.00000000       0.00000048       0.00000418      -0.00000348       0.00000571       0.00000227      -0.00000153
18
Lattice="5.612310241546866 0.0 0.0 0.0 4.860403243099165 0.0 0.0 0.0 24.582432123328676" Properties=species:S:1:pos:R:3:tags:I:1:masses:R:1:momenta:R:3:forces:R:3 KEmax=23.26679191048647 iter=90097 volume=670.5618179858607 ns_energy=-11.638031574998562 last_walked_iter_clone=89966 energy=-11.638031575026146 stress="0.022594246105169274 2.2931912494180305e-08 -1.2028067816078666e-08 2.2931912494180305e-08 0.022708652116047418 -3.1417008140718244e-09 -1.2028067816078666e-08 -3.1417008140718244e-09 0.01228349331660094" pbc="T T F"
H        1.40307756       0.81006721      10.00000000        3       1.00000000       0.00000000       0.00000000       0.00000000       0.00000000       0.00000000       0.00000000
H        4.20923268       0.81006721      10.00000000        3       1.00000000       0.00000000       0.00000000       0.00000000       0.00000000       0.00000000       0.00000000
H        0.00000000       3.24026883      10.00000000        3       1.00000000       0.00000000       0.00000000       0.00000000       0.00000000       0.00000000       0.00000000
H        2.80615512       3.24026883      10.00000000        3       1.00000000       0.00000000       0.00000000       0.00000000       0.00000000       0.00000000       0.00000000
H        0.00000000       1.62013441      12.29121606        2       1.00000000       0.00000000       0.00000000       0.00000000       0.00000000       0.00000000       0.00000000
H        2.80615512       1.62013441      12.29121606        2       1.00000000       0.00000000       0.00000000       0.00000000       0.00000000       0.00000000       0.00000000
H        1.40307756       4.05033604      12.29121606        2       1.00000000       0.00000000       0.00000000       0.00000000       0.00000000       0.00000000       0.00000000
H        4.20923268       4.05033604      12.29121606        2       1.00000000       0.00000000       0.00000000       0.00000000       0.00000000       0.00000000       0.00000000
H        0.00000000       0.00000000      14.58243212        1       1.00000000       0.00000000       0.00000000       0.00000000       0.00000000       0.00000000       0.00000000
H        2.80615512       0.00000000      14.58243212        1       1.00000000       0.00000000       0.00000000       0.00000000       0.00000000       0.00000000       0.00000000
H        1.40307756       2.43020162      14.58243212        1       1.00000000       0.00000000       0.00000000       0.00000000       0.00000000       0.00000000       0.00000000
H        4.20923268       2.43020162      14.58243212        1       1.00000000       0.00000000       0.00000000       0.00000000       0.00000000       0.00000000       0.00000000
H        1.40307797       4.05033490       7.77136803        0       1.00000000      -0.00000089       0.00000054       0.00000174      -0.00000593       0.00000667      -0.00000261
H        0.00000019       1.62013413       7.77136723        0       1.00000000       0.00000324      -0.00000137      -0.00000168      -0.00000226      -0.00000764      -0.00000296
H        0.00993299       1.61998912      16.81113146        0       1.00000000       0.00000055      -0.00000367      -0.00000235       0.00000143      -0.00000251       0.00000064
H        4.20923165       4.05033535       7.77136719        0       1.00000000      -0.00000307      -0.00000085       0.00000138       0.00000321       0.00000074      -0.00000546
H        4.19930425       4.05019079      16.81113076        0       1.00000000      -0.00000111       0.00000444      -0.00000295       0.00000063       0.00000448      -0.00000278
H        2.80615373       1.62013375       7.77136922        0       1.00000000       0.00000328      -0.00000004       0.00000162       0.00000571       0.00000227      -0.00000153
18
Lattice="5.612310241546866 0.0 0.0 0.0 4.860403243099165 0.0 0.0 0.0 24.582432123328676" Properties=species:S:1:pos:R:3:tags:I:1:masses:R:1:momenta:R:3:forces:R:3 KEmax=23.26679191048647 iter=90097 volume=670.5618179858607 ns_energy=-11.638031574999534 last_walked_iter_clone=90044 energy=-11.638031575026146 stress="0.022594246105169274 2.2931912494180305e-08 -1.2028067816078666e-08 2.2931912494180305e-08 0.022708652116047418 -3.1417008140718244e-09 -1.2028067816078666e-08 -3.1417008140718244e-09 0.01228349331660094" pbc="T T F"
H        1.40307756       0.81006721      10.00000000        3       1.00000000       0.00000000       0.00000000       0.00000000       0.00000000       0.00000000       0.00000000
H        4.20923268       0.81006721      10.00000000        3       1.00000000       0.00000000       0.00000000       0.00000000       0.00000000       0.00000000       0.00000000
H        0.00000000       3.24026883      10.00000000        3       1.00000000       0.00000000       0.00000000       0.00000000       0.00000000       0.00000000       0.00000000
H        2.80615512       3.24026883      10.00000000        3       1.00000000       0.00000000       0.00000000       0.00000000       0.00000000       0.00000000       0.00000000
H        0.00000000       1.62013441      12.29121606        2       1.00000000       0.00000000       0.00000000       0.00000000       0.00000000       0.00000000       0.00000000
H        2.80615512       1.62013441      12.29121606        2       1.00000000       0.00000000       0.00000000       0.00000000       0.00000000       0.00000000       0.00000000
H        1.40307756       4.05033604      12.29121606        2       1.00000000       0.00000000       0.00000000       0.00000000       0.00000000       0.00000000       0.00000000
H        4.20923268       4.05033604      12.29121606        2       1.00000000       0.00000000       0.00000000       0.00000000       0.00000000       0.00000000       0.00000000
H        0.00000000       0.00000000      14.58243212        1       1.00000000       0.00000000       0.00000000       0.00000000       0.00000000       0.00000000       0.00000000
H        2.80615512       0.00000000      14.58243212        1       1.00000000       0.00000000       0.00000000       0.00000000       0.00000000       0.00000000       0.00000000
H        1.40307756       2.43020162      14.58243212        1       1.00000000       0.00000000       0.00000000       0.00000000       0.00000000       0.00000000       0.00000000
H        4.20923268       2.43020162      14.58243212        1       1.00000000       0.00000000       0.00000000       0.00000000       0.00000000       0.00000000       0.00000000
H        1.40307854       4.05033774       7.77136606        0       1.00000000      -0.00000011      -0.00000029       0.00000031      -0.00000593       0.00000667      -0.00000261
H        5.61231240       1.62013487       7.77136482        0       1.00000000      -0.00000412       0.00000019       0.00000101      -0.00000226      -0.00000764      -0.00000296
H        0.00993482       1.61998791      16.81112827        0       1.00000000       0.00000122       0.00000159       0.00000388       0.00000143      -0.00000251       0.00000064
H        4.20923300       4.05033596       7.77136641        0       1.00000000       0.00000159      -0.00000053       0.00000002       0.00000321       0.00000074      -0.00000546
H        4.19930453       4.05018926      16.81113155        0       1.00000000      -0.00000009      -0.00000194       0.00000314       0.00000063       0.00000448      -0.00000278
H        2.80615666       1.62013409       7.77136796        0       1.00000000       0.00000328      -0.00000112      -0.00000188       0.00000571       0.00000227      -0.00000153
18
Lattice="5.612310241546866 0.0 0.0 0.0 4.860403243099165 0.0 0.0 0.0 24.582432123328676" Properties=species:S:1:pos:R:3:tags:I:1:masses:R:1:momenta:R:3:forces:R:3 KEmax=23.26679191048647 iter=90097 volume=670.5618179858607 ns_energy=-11.638031574998143 last_walked_iter_clone=90029 energy=-11.638031575026146 stress="0.022594246105169274 2.2931912494180305e-08 -1.2028067816078666e-08 2.2931912494180305e-08 0.022708652116047418 -3.1417008140718244e-09 -1.2028067816078666e-08 -3.1417008140718244e-09 0.01228349331660094" pbc="T T F"
H        1.40307756       0.81006721      10.00000000        3       1.00000000       0.00000000       0.00000000       0.00000000       0.00000000       0.00000000       0.00000000
H        4.20923268       0.81006721      10.00000000        3       1.00000000       0.00000000       0.00000000       0.00000000       0.00000000       0.00000000       0.00000000
H        0.00000000       3.24026883      10.00000000        3       1.00000000       0.00000000       0.00000000       0.00000000       0.00000000       0.00000000       0.00000000
H        2.80615512       3.24026883      10.00000000        3       1.00000000       0.00000000       0.00000000       0.00000000       0.00000000       0.00000000       0.00000000
H        0.00000000       1.62013441      12.29121606        2       1.00000000       0.00000000       0.00000000       0.00000000       0.00000000       0.00000000       0.00000000
H        2.80615512       1.62013441      12.29121606        2       1.00000000       0.00000000       0.00000000       0.00000000       0.00000000       0.00000000       0.00000000
H        1.40307756       4.05033604      12.29121606        2       1.00000000       0.00000000       0.00000000       0.00000000       0.00000000       0.00000000       0.00000000
H        4.20923268       4.05033604      12.29121606        2       1.00000000       0.00000000       0.00000000       0.00000000       0.00000000       0.00000000       0.00000000
H        0.00000000       0.00000000      14.58243212        1       1.00000000       0.00000000       0.00000000       0.00000000       0.00000000       0.00000000       0.00000000
H        2.80615512       0.00000000      14.58243212        1       1.00000000       0.00000000       0.00000000       0.00000000       0.00000000       0.00000000       0.00000000
H        1.40307756       2.43020162      14.58243212        1       1.00000000       0.00000000       0.00000000       0.00000000       0.00000000       0.00000000       0.00000000
H        4.20923268       2.43020162      14.58243212        1       1.00000000       0.00000000       0.00000000       0.00000000       0.00000000       0.00000000       0.00000000
H        1.40307716       4.05033532       7.77136555        0       1.00000000      -0.00000171      -0.00000157       0.00000294      -0.00000593       0.00000667      -0.00000261
H        5.61231214       1.62013402       7.77136592        0       1.00000000       0.00000144       0.00000107      -0.00000087      -0.00000226      -0.00000764      -0.00000296
H        0.00993174       1.61998763      16.81112947        0       1.00000000      -0.00000147       0.00000109       0.00000248       0.00000143      -0.00000251       0.00000064
H        4.20923309       4.05033547       7.77136815        0       1.00000000      -0.00000108      -0.00000218      -0.00000013       0.00000321       0.00000074      -0.00000546
H        4.19930373       4.05018740      16.81112928        0       1.00000000       0.00000019      -0.00000338       0.00000072       0.00000063       0.00000448      -0.00000278
H        2.80615751       1.62013287       7.77137080        0       1.00000000       0.00000044      -0.00000304       0.00000127       0.00000571       0.00000227      -0.00000153
18
Lattice="5.612310241546866 0.0 0.0 0.0 4.860403243099165 0.0 0.0 0.0 24.582432123328676" Properties=species:S:1:pos:R:3:tags:I:1:masses:R:1:momenta:R:3:forces:R:3 KEmax=23.26679191048647 iter=90097 volume=670.5618179858607 ns_energy=-11.638031574998115 last_walked_iter_clone=89900 energy=-11.638031575026146 stress="0.022594246105169274 2.2931912494180305e-08 -1.2028067816078666e-08 2.2931912494180305e-08 0.022708652116047418 -3.1417008140718244e-09 -1.2028067816078666e-08 -3.1417008140718244e-09 0.01228349331660094" pbc="T T F"
H        1.40307756       0.81006721      10.00000000        3       1.00000000       0.00000000       0.00000000       0.00000000       0.00000000       0.00000000       0.00000000
H        4.20923268       0.81006721      10.00000000        3       1.00000000       0.00000000       0.00000000       0.00000000       0.00000000       0.00000000       0.00000000
H        0.00000000       3.24026883      10.00000000        3       1.00000000       0.00000000       0.00000000       0.00000000       0.00000000       0.00000000       0.00000000
H        2.80615512       3.24026883      10.00000000        3       1.00000000       0.00000000       0.00000000       0.00000000       0.00000000       0.00000000       0.00000000
H        0.00000000       1.62013441      12.29121606        2       1.00000000       0.00000000       0.00000000       0.00000000       0.00000000       0.00000000       0.00000000
H        2.80615512       1.62013441      12.29121606        2       1.00000000       0.00000000       0.00000000       0.00000000       0.00000000       0.00000000       0.00000000
H        1.40307756       4.05033604      12.29121606        2       1.00000000       0.00000000       0.00000000       0.00000000       0.00000000       0.00000000       0.00000000
H        4.20923268       4.05033604      12.29121606        2       1.00000000       0.00000000       0.00000000       0.00000000       0.00000000       0.00000000       0.00000000
H        0.00000000       0.00000000      14.58243212        1       1.00000000       0.00000000       0.00000000       0.00000000       0.00000000       0.00000000       0.00000000
H        2.80615512       0.00000000      14.58243212        1       1.00000000       0.00000000       0.00000000       0.00000000       0.00000000       0.00000000       0.00000000
H        1.40307756       2.43020162      14.58243212        1       1.00000000       0.00000000       0.00000000       0.00000000       0.00000000       0.00000000       0.00000000
H        4.20923268       2.43020162      14.58243212        1       1.00000000       0.00000000       0.00000000       0.00000000       0.00000000       0.00000000       0.00000000
H        1.40307582       4.05033695       7.77136765        0       1.00000000       0.00000083      -0.00000231      -0.00000133      -0.00000593       0.00000667      -0.00000261
H        5.61230920       1.62013480       7.77136718        0       1.00000000      -0.00000135       0.00000104      -0.00000238      -0.00000226      -0.00000764      -0.00000296
H        0.00993377       1.61998541      16.81112965        0       1.00000000       0.00000057       0.00000453       0.00000366       0.00000143      -0.00000251       0.00000064