18
Lattice="5.612310241546866 0.0 0.0 0.0 4.860403243099165 0.0 0.0 0.0 24.582432123328676" Properties=species:S:1:pos:R:3:tags:I:1:masses:R:1:momenta:R:3 KEmax=23.26679191048647 iter=99 volume=670.5618179858607 ns_energy=84.94974722400696 ns_P=0.0 config_n_global=99 ns_KE=8.44509952686203 pbc="T T F"
H        1.40307756       0.81006721      10.00000000        3       1.00000000       0.00000000       0.00000000       0.00000000
H        4.20923268       0.81006721      10.00000000        3       1.00000000       0.00000000       0.00000000       0.00000000
H        0.00000000       3.24026883      10.00000000        3       1.00000000       0.00000000       0.00000000       0.00000000
H        2.80615512       3.24026883      10.00000000        3       1.00000000       0.00000000       0.00000000       0.00000000
H        0.00000000       1.62013441      12.29121606        2       1.00000000       0.00000000       0.00000000       0.00000000
H        2.80615512       1.62013441      12.29121606        2       1.00000000       0.00000000       0.00000000       0.00000000
H        1.40307756       4.05033604      12.29121606        2       1.00000000       0.00000000       0.00000000       0.00000000
H        4.20923268       4.05033604      12.29121606        2       1.00000000       0.00000000       0.00000000       0.00000000
H        0.00000000       0.00000000      14.58243212        1       1.00000000       0.00000000       0.00000000       0.00000000
H        2.80615512       0.00000000      14.58243212        1       1.00000000       0.00000000       0.00000000       0.00000000
H        1.40307756       2.43020162      14.58243212        1       1.00000000       0.00000000       0.00000000       0.00000000
H        4.20923268       2.43020162      14.58243212        1       1.00000000       0.00000000       0.00000000       0.00000000
H        4.09096725       3.79016016       2.77721110        0       1.00000000      -0.40585783       1.03957108       0.77960261
H        1.78119120       1.39742055       3.33807150        0       1.00000000       0.10608331       1.27216552       0.02336585
H        1.06876632       2.26016201      20.93271015        0       1.00000000       0.35344086      -0.24650978      -1.07312402
H        4.71994312       3.62025754       4.91342692        0       1.00000000       1.39064723       1.58454086      -0.06894059
H        4.50012762       2.70670685      19.39301089        0       1.00000000       0.19759380      -1.12472935      -0.14192775
H        1.30112045       0.12603475       2.50865906        0       1.00000000      -1.59568242       0.19331824       1.92673384
18
Lattice="5.612310241546866 0.0 0.0 0.0 4.860403243099165 0.0 0.0 0.0 24.582432123328676" Properties=species:S:1:pos:R:3:tags:I:1:masses:R:1:momenta:R:3 KEmax=23.26679191048647 iter=199 volume=670.5618179858607 ns_energy=13.85904056219749 last_walked_iter_clone=159 ns_P=0.0 config_n_global=199 ns_KE=21.927109825182054 pbc="T T F"
H        1.40307756       0.81006721      10.00000000        3       1.00000000       0.00000000       0.00000000       0.00000000
H        4.20923268       0.81006721      10.00000000        3       1.00000000       0.00000000       0.00000000       0.00000000
H        0.00000000       3.24026883      10.00000000        3       1.00000000       0.00000000       0.00000000       0.00000000
H        2.80615512       3.24026883      10.00000000        3       1.00000000       0.00000000       0.00000000       0.00000000
H        0.00000000       1.62013441      12.29121606        2       1.00000000       0.00000000       0.00000000       0.00000000
H        2.80615512       1.62013441      12.29121606        2       1.00000000       0.00000000       0.00000000       0.00000000
H        1.40307756       4.05033604      12.29121606        2       1.00000000       0.00000000       0.00000000       0.00000000
H        4.20923268       4.05033604      12.29121606        2       1.00000000       0.00000000       0.00000000       0.00000000
H        0.00000000       0.00000000      14.58243212        1       1.00000000       0.00000000       0.00000000       0.00000000
H        2.80615512       0.00000000      14.58243212        1       1.00000000       0.00000000       0.00000000       0.00000000
H        1.40307756       2.43020162      14.58243212        1       1.00000000       0.00000000       0.00000000       0.00000000
H        4.20923268       2.43020162      14.58243212        1       1.00000000       0.00000000       0.00000000       0.00000000
H        3.10938343       0.02086829       2.13263849        0       1.00000000      -1.09790488      -3.05105580      -0.28943421
H        2.99266401       4.60216403       4.80545166        0       1.00000000       2.53716221       1.17384326       2.60019251
H        3.36922738       3.04065660      23.93948274        0       1.00000000       1.13605182      -2.83979250      -1.79326484
H        1.56598020       2.80307080       3.81540044        0       1.00000000       1.30226707       0.04897715      -0.77336294
H        0.20641873       1.71190928      20.31474544        0       1.00000000       1.21313282      -1.35000553       0.24762359
H        1.81018484       0.02014525       7.76680122        0       1.00000000       0.67333262       0.05971858       0.01790017
18
Lattice="5.612310241546866 0.0 0.0 0.0 4.860403243099165 0.0 0.0 0.0 24.582432123328676" Properties=species:S:1:pos:R:3:tags:I:1:masses:R:1:momenta:R:3 KEmax=23.26679191048647 iter=299 volume=670.5618179858607 ns_energy=12.340601032163057 last_walked_iter_clone=186 ns_P=0.0 config_n_global=299 ns_KE=20.857830597158753 pbc="T T F"
H        1.40307756       0.81006721      10.00000000        3       1.00000000       0.00000000       0.00000000       0.00000000
H        4.20923268       0.81006721      10.00000000        3       1.00000000       0.00000000       0.00000000       0.00000000
H        0.00000000       3.24026883      10.00000000        3       1.00000000       0.00000000       0.00000000       0.00000000
H        2.80615512       3.24026883      10.00000000        3       1.00000000       0.00000000       0.00000000       0.00000000
H        0.00000000       1.62013441      12.29121606        2       1.00000000       0.00000000       0.00000000       0.00000000
H        2.80615512       1.62013441      12.29121606        2       1.00000000       0.00000000       0.00000000       0.00000000
H        1.40307756       4.05033604      12.29121606        2       1.00000000       0.00000000       0.00000000       0.00000000
H        4.20923268       4.05033604      12.29121606        2       1.00000000       0.00000000       0.00000000       0.00000000
H        0.00000000       0.00000000      14.58243212        1       1.00000000       0.00000000       0.00000000       0.00000000
H        2.80615512       0.00000000      14.58243212        1       1.00000000       0.00000000       0.00000000       0.00000000
H        1.40307756       2.43020162      14.58243212        1       1.00000000       0.00000000       0.00000000       0.00000000
H        4.20923268       2.43020162      14.58243212        1       1.00000000       0.00000000       0.00000000       0.00000000
H        3.74747956       0.48186969       7.36833727        0       1.00000000      -1.31501032       0.16838329      -0.95691894
H        0.78978378       0.35764321       7.62223440        0       1.00000000       4.01420776       2.17783910       1.48866637
H        3.96502203       1.51755702      21.96426858        0       1.00000000       0.32368768       1.67167189      -0.57563388
H        2.71510382       4.81556382       3.87659345        0       1.00000000       0.48383743      -0.78982867       0.25456668
H        2.37932864       3.53017873      21.05450055        0       1.00000000       2.44788415       0.81113511       1.27596136
H        1.17137735       3.45217809       1.09806906        0       1.00000000      -0.27838809       1.11661497      -1.48780281
18
Lattice="5.612310241546866 0.0 0.0 0.0 4.860403243099165 0.0 0.0 0.0 24.582432123328676" Properties=species:S:1:pos:R:3:tags:I:1:masses:R:1:momenta:R:3 KEmax=23.26679191048647 iter=399 volume=670.5618179858607 ns_energy=10.464958144818432 last_walked_iter_clone=323 ns_P=0.0 config_n_global=399 ns_KE=18.701795635079563 pbc="T T F"
H        1.40307756       0.81006721      10.00000000        3       1.00000000       0.00000000       0.00000000       0.00000000
H        4.20923268       0.81006721      10.00000000        3       1.00000000       0.00000000       0.00000000       0.00000000
H        0.00000000       3.24026883      10.00000000        3       1.00000000       0.00000000       0.00000000       0.00000000
H        2.80615512       3.24026883      10.00000000        3       1.00000000       0.00000000       0.00000000       0.00000000
H        0.00000000       1.62013441      12.29121606        2       1.00000000       0.00000000       0.00000000       0.00000000
H        2.80615512       1.62013441      12.29121606        2       1.00000000       0.00000000       0.00000000       0.00000000
H        1.40307756       4.05033604      12.29121606        2       1.00000000       0.00000000       0.00000000       0.00000000
H        4.20923268       4.05033604      12.29121606        2       1.00000000       0.00000000       0.00000000       0.00000000
H        0.00000000       0.00000000      14.58243212        1       1.00000000       0.00000000       0.00000000       0.00000000
H        2.80615512       0.00000000      14.58243212        1       1.00000000       0.00000000       0.00000000       0.00000000
H        1.40307756       2.43020162      14.58243212        1       1.00000000       0.00000000       0.00000000       0.00000000
H        4.20923268       2.43020162      14.58243212        1       1.00000000       0.00000000       0.00000000       0.00000000
H        2.92307606       1.44786589       1.58151483        0       1.00000000       0.24323191       1.75303486       2.86001093
H        2.19413702       0.12800355       4.02272051        0       1.00000000       0.87053488      -0.31175864      -0.92143380
H        4.46134452       1.27731711      21.17330426        0       1.00000000       0.26656077       1.35880924       0.21365572
H        5.44794350       0.96817056       5.32624879        0       1.00000000      -2.05840444       0.35392124       0.91208147
H        4.78129447       1.16689208      23.82411142        0       1.00000000      -1.45367359      -2.89176617      -0.11151799
H        1.98194430       2.50603374       6.00764610        0       1.00000000       0.72913961       2.47662482      -0.27765745
18
Lattice="5.612310241546866 0.0 0.0 0.0 4.860403243099165 0.0 0.0 0.0 24.582432123328676" Properties=species:S:1:pos:R:3:tags:I:1:masses:R:1:momenta:R:3 KEmax=23.26679191048647 iter=499 volume=670.5618179858607 ns_energy=8.963499421713793 last_walked_iter_clone=441 ns_P=0.0 config_n_global=499 ns_KE=14.837662992790637 pbc="T T F"
H        1.40307756       0.81006721      10.00000000        3       1.00000000       0.00000000       0.00000000       0.00000000
H        4.20923268       0.81006721      10.00000000        3       1.00000000       0.00000000       0.00000000       0.00000000
H        0.00000000       3.24026883      10.00000000        3       1.00000000       0.00000000       0.00000000       0.00000000
H        2.80615512       3.24026883      10.00000000        3       1.00000000       0.00000000       0.00000000       0.00000000
H        0.00000000       1.62013441      12.29121606        2       1.00000000       0.00000000       0.00000000       0.00000000
H        2.80615512       1.62013441      12.29121606        2       1.00000000       0.00000000       0.00000000       0.00000000
H        1.40307756       4.05033604      12.29121606        2       1.00000000       0.00000000       0.00000000       0.00000000
H        4.20923268       4.05033604      12.29121606        2       1.00000000       0.00000000       0.00000000       0.00000000
H        0.00000000       0.00000000      14.58243212        1       1.00000000       0.00000000       0.00000000       0.00000000
H        2.80615512       0.00000000      14.58243212        1       1.00000000       0.00000000       0.00000000       0.00000000
H        1.40307756       2.43020162      14.58243212        1       1.00000000       0.00000000       0.00000000       0.00000000
H        4.20923268       2.43020162      14.58243212        1       1.00000000       0.00000000       0.00000000       0.00000000
H        1.14927934       3.56262096       7.79120632        0       1.00000000       1.75774009       0.27429790      -3.08855137
H        2.56563040       0.29148218       0.15275810        0       1.00000000       0.06085404      -0.96265681       0.17588814
H        3.54727277       2.56962026      16.67177432        0       1.00000000       0.55261781       0.28570782      -2.61184557
H        3.40184000       4.41167758       1.92391737        0       1.00000000      -0.29992803       1.21505764      -1.36993943
H        0.52377635       2.62359507      17.11097180        0       1.00000000      -0.25200717       0.27695006       2.05483417
H        4.96302697       1.44874243       6.93001894        0       1.00000000       0.09415882       0.97315666      -0.19919346
18
Lattice="5.612310241546866 0.0 0.0 0.0 4.860403243099165 0.0 0.0 0.0 24.582432123328676" Properties=species:S:1:pos:R:3:tags:I:1:masses:R:1:momenta:R:3 KEmax=23.26679191048647 iter=599 volume=670.5618179858607 ns_energy=7.515683238462368 last_walked_iter_clone=550 ns_P=0.0 config_n_global=599 ns_KE=14.70551490089754 pbc="T T F"
H        1.40307756       0.81006721      10.00000000        3       1.00000000       0.00000000       0.00000000       0.00000000
H        4.20923268       0.81006721      10.00000000        3       1.00000000       0.00000000       0.00000000       0.00000000
H        0.00000000       3.24026883      10.00000000        3       1.00000000       0.00000000       0.00000000       0.00000000
H        2.80615512       3.24026883      10.00000000        3       1.00000000       0.00000000       0.00000000       0.00000000
H        0.00000000       1.62013441      12.29121606        2       1.00000000       0.00000000       0.00000000       0.00000000
H        2.80615512       1.62013441      12.29121606        2       1.00000000       0.00000000       0.00000000       0.00000000
H        1.40307756       4.05033604      12.29121606        2       1.00000000       0.00000000       0.00000000       0.00000000
H        4.20923268       4.05033604      12.29121606        2       1.00000000       0.00000000       0.00000000       0.00000000
H        0.00000000       0.00000000      14.58243212        1       1.00000000       0.00000000       0.00000000       0.00000000
H        2.80615512       0.00000000      14.58243212        1       1.00000000       0.00000000       0.00000000       0.00000000
H        1.40307756       2.43020162      14.58243212        1       1.00000000       0.00000000       0.00000000       0.00000000
H        4.20923268       2.43020162      14.58243212        1       1.00000000       0.00000000       0.00000000       0.00000000
H        3.11081007       1.12977850       8.12253015        0       1.00000000      -1.67833271      -1.46443662       1.51039378
H        3.87770715       0.23246713       1.08433197        0       1.00000000      -0.88629734      -1.23539464      -0.88574078
H        0.41613426       2.80120504      24.30211587        0       1.00000000       0.99838537      -0.73755712       0.22716040
H        3.03657075       0.59681810       4.52912843        0       1.00000000      -1.43800699      -0.71234762      -0.53619563
H        3.69841335       0.39117350      20.17486493        0       1.00000000      -1.00229103       2.98191640      -0.95918410
H        0.69481646       2.08130170       5.80077737        0       1.00000000       0.93244055      -0.03815119      -1.71160251
18
Lattice="5.612310241546866 0.0 0.0 0.0 4.860403243099165 0.0 0.0 0.0 24.582432123328676" Properties=species:S:1:pos:R:3:tags:I:1:masses:R:1:momenta:R:3 KEmax=23.26679191048647 iter=699 volume=670.5618179858607 ns_energy=6.13698231411854 last_walked_iter_clone=610 ns_P=0.0 config_n_global=699 ns_KE=12.611452303981077 pbc="T T F"
H        1.40307756       0.81006721      10.00000000        3       1.00000000       0.00000000       0.00000000       0.00000000
H        4.20923268       0.81006721      10.00000000        3       1.00000000       0.00000000       0.00000000       0.00000000
H        0.00000000       3.24026883      10.00000000        3       1.00000000       0.00000000       0.00000000       0.00000000
H        2.80615512       3.24026883      10.00000000        3       1.00000000       0.00000000       0.00000000       0.00000000
H        0.00000000       1.62013441      12.29121606        2       1.00000000       0.00000000       0.00000000       0.00000000
H        2.80615512       1.62013441      12.29121606        2       1.00000000       0.00000000       0.00000000       0.00000000
H        1.40307756       4.05033604      12.29121606        2       1.00000000       0.00000000       0.00000000       0.00000000
H        4.20923268       4.05033604      12.29121606        2       1.00000000       0.00000000       0.00000000       0.00000000
H        0.00000000       0.00000000      14.58243212        1       1.00000000       0.00000000       0.00000000       0.00000000
H        2.80615512       0.00000000      14.58243212        1       1.00000000       0.00000000       0.00000000       0.00000000
H        1.40307756       2.43020162      14.58243212        1       1.00000000       0.00000000       0.00000000       0.00000000
H        4.20923268       2.43020162      14.58243212        1       1.00000000       0.00000000       0.00000000       0.00000000
H        0.72729763       1.46079038       0.52006477        0       1.00000000      -0.77592424       0.15644291      -0.21505926
H        2.00366001       4.28328512       6.97480554        0       1.00000000      -0.47434596       0.78540898      -1.05872111
H        2.55720045       4.26698858      23.32812687        0       1.00000000      -0.34007121       2.85031805       0.88978728
H        4.85769021       3.32782609       3.83053572        0       1.00000000       0.64912447      -0.82338459       1.96344962
H        0.73531262       4.56969001      24.42415380        0       1.00000000      -1.92205778      -1.35541472      -1.01774612
H        2.13801737       3.06158278       1.91374026        0       1.00000000       0.53621800       0.28426808      -1.29058792
18
Lattice="5.612310241546866 0.0 0.0 0.0 4.860403243099165 0.0 0.0 0.0 24.582432123328676" Properties=species:S:1:pos:R:3:tags:I:1:masses:R:1:momenta:R:3 KEmax=23.26679191048647 iter=799 volume=670.5618179858607 ns_energy=5.139216647433374 last_walked_iter_clone=647 ns_P=0.0 config_n_global=799 ns_KE=13.731271139805347 pbc="T T F"
H        1.40307756       0.81006721      10.00000000        3       1.00000000       0.00000000       0.00000000       0.00000000
H        4.20923268       0.81006721      10.00000000        3       1.00000000       0.00000000       0.00000000       0.00000000
H        0.00000000       3.24026883      10.00000000        3       1.00000000       0.00000000       0.00000000       0.00000000
H        2.80615512       3.24026883      10.00000000        3       1.00000000       0.00000000       0.00000000       0.00000000
H        0.00000000       1.62013441      12.29121606        2       1.00000000       0.00000000       0.00000000       0.00000000
H        2.80615512       1.62013441      12.29121606        2       1.00000000       0.00000000       0.00000000       0.00000000
H        1.40307756       4.05033604      12.29121606        2       1.00000000       0.00000000       0.00000000       0.00000000
H        4.20923268       4.05033604      12.29121606        2       1.00000000       0.00000000       0.00000000       0.00000000
H        0.00000000       0.00000000      14.58243212        1       1.00000000       0.00000000       0.00000000       0.00000000
H        2.80615512       0.00000000      14.58243212        1       1.00000000       0.00000000       0.00000000       0.00000000
H        1.40307756       2.43020162      14.58243212        1       1.00000000       0.00000000       0.00000000       0.00000000
H        4.20923268       2.43020162      14.58243212        1       1.00000000       0.00000000       0.00000000       0.00000000
H        0.97980438       2.08929224       7.89936565        0       1.00000000      -0.32718803      -1.02832972      -2.41616796
H        3.67016625       0.27745174       4.36031062        0       1.00000000      -1.65857460       0.10326726       0.37480586
H        1.08535892       2.25326270      17.88204926        0       1.00000000      -0.10749842       1.39922294       0.43379970
H        2.79524325       3.93262502       7.59419952        0       1.00000000       1.63587726       0.48929108      -1.00005114
H        2.55683857       2.78490369      20.67926857        0       1.00000000       2.38134872       0.83851132       0.28103360
H        0.07236088       3.72329896       2.00799336        0       1.00000000       0.09892321       2.08389807       0.82441629
18
Lattice="5.612310241546866 0.0 0.0 0.0 4.860403243099165 0.0 0.0 0.0 24.582432123328676" Properties=species:S:1:pos:R:3:tags:I:1:masses:R:1:momenta:R:3 KEmax=23.26679191048647 iter=899 volume=670.5618179858607 ns_energy=4.073758553935499 last_walked_iter_clone=852 ns_P=0.0 config_n_global=899 ns_KE=7.879790409854979 pbc="T T F"
H        1.40307756       0.81006721      10.00000000        3       1.00000000       0.00000000       0.00000000       0.00000000
H        4.20923268       0.81006721      10.00000000        3       1.00000000       0.00000000       0.00000000       0.00000000
H        0.00000000       3.24026883      10.00000000        3       1.00000000       0.00000000       0.00000000       0.00000000
H        2.80615512       3.24026883      10.00000000        3       1.00000000       0.00000000       0.00000000       0.00000000
H        0.00000000       1.62013441      12.29121606        2       1.00000000       0.00000000       0.00000000       0.00000000
H        2.80615512       1.62013441      12.29121606        2       1.00000000       0.00000000       0.00000000       0.00000000
H        1.40307756       4.05033604      12.29121606        2       1.00000000       0.00000000       0.00000000       0.00000000
H        4.20923268       4.05033604      12.29121606        2       1.00000000       0.00000000       0.00000000       0.00000000
H        0.00000000       0.00000000      14.58243212        1       1.00000000       0.00000000       0.00000000       0.00000000
H        2.80615512       0.00000000      14.58243212        1       1.00000000       0.00000000       0.00000000       0.00000000
H        1.40307756       2.43020162      14.58243212        1       1.00000000       0.00000000       0.00000000       0.00000000
H        4.20923268       2.43020162      14.58243212        1       1.00000000       0.00000000       0.00000000       0.00000000
H        4.56562363       2.48797046       7.61469830        0       1.00000000      -0.82206644      -1.55009032      -1.16193954
H        0.80375343       1.04627664       0.61104772        0       1.00000000       0.23120101      -1.67098746      -1.12711064
H        4.67406736       4.61341325      23.03380739        0       1.00000000       0.56729868      -0.21185513      -0.53610359
H        2.32681452       3.23626385       6.88308299        0       1.00000000       1.13034777      -0.54941768      -0.24090595
H        1.55211664       1.61877931      16.40595361        0       1.00000000       1.10238503       0.80761419      -0.43562381
H        5.59503187       4.33448813       2.04234211        0       1.00000000       0.53295059       1.42103396       0.75002554
18
Lattice="5.612310241546866 0.0 0.0 0.0 4.860403243099165 0.0 0.0 0.0 24.582432123328676" Properties=species:S:1:pos:R:3:tags:I:1:masses:R:1:momenta:R:3 KEmax=23.26679191048647 iter=999 volume=670.5618179858607 ns_energy=3.196568217922165 last_walked_iter_clone=884 ns_P=0.0 config_n_global=999 ns_KE=11.316793665124429 pbc="T T F"
H        1.40307756       0.81006721      10.00000000        3       1.00000000       0.00000000       0.00000000       0.00000000
H        4.20923268       0.81006721      10.00000000        3       1.00000000       0.00000000       0.00000000       0.00000000
H        0.00000000       3.24026883      10.00000000        3       1.00000000       0.00000000       0.00000000       0.00000000
H        2.80615512       3.24026883      10.00000000        3       1.00000000       0.00000000       0.00000000       0.00000000
H        0.00000000       1.62013441      12.29121606        2       1.00000000       0.00000000       0.00000000       0.00000000
H        2.80615512       1.62013441      12.29121606        2       1.00000000       0.00000000       0.00000000       0.00000000
H        1.40307756       4.05033604      12.29121606        2       1.00000000       0.00000000       0.00000000       0.00000000
H        4.20923268       4.05033604      12.29121606        2       1.00000000       0.00000000       0.00000000       0.00000000
H        0.00000000       0.00000000      14.58243212        1       1.00000000       0.00000000       0.00000000       0.00000000
H        2.80615512       0.00000000      14.58243212        1       1.00000000       0.00000000       0.00000000       0.00000000
H        1.40307756       2.43020162      14.58243212        1       1.00000000       0.00000000       0.00000000       0.00000000
H        4.20923268       2.43020162      14.58243212        1       1.00000000       0.00000000       0.00000000       0.00000000
H        5.25029896       0.11130604       7.29080474        0       1.00000000      -0.02011228       0.65827594       0.17424957
H        2.90406841       2.07561861       2.61552119        0       1.00000000      -0.74806960       0.75162982       1.56904043
H        1.95522868       0.96417855      16.45950572        0       1.00000000      -1.29642175       0.68338127       1.17520843
H        5.46158682       1.69125414       2.82693031        0       1.00000000      -1.09913694      -0.11627315      -1.01790958
H        1.65039480       4.52773493      24.53263860        0       1.00000000      -2.27374340       1.15558280       0.00243249
H        1.78130726       1.79230156       7.17445886        0       1.00000000       0.06996020      -0.21428170      -2.49807049
18
Lattice="5.612310241546866 0.0 0.0 0.0 4.860403243099165 0.0 0.0 0.0 24.582432123328676" Properties=species:S:1:pos:R:3:tags:I:1:masses:R:1:momenta:R:3 KEmax=23.26679191048647 iter=1099 volume=670.5618179858607 ns_energy=2.3329806760784835 last_walked_iter_clone=1029 ns_P=0.0 config_n_global=1099 ns_KE=10.376557054566149 pbc="T T F"
H        1.40307756       0.81006721      10.00000000        3       1.00000000       0.00000000       0.00000000       0.00000000
H        4.20923268       0.81006721      10.00000000        3       1.00000000       0.00000000       0.00000000       0.00000000
H        0.00000000       3.24026883      10.00000000        3       1.00000000       0.00000000       0.00000000       0.00000000
H        2.80615512       3.24026883      10.00000000        3       1.00000000       0.00000000       0.00000000       0.00000000
H        0.00000000       1.62013441      12.29121606        2       1.00000000       0.00000000       0.00000000       0.00000000
H        2.80615512       1.62013441      12.29121606        2       1.00000000       0.00000000       0.00000000       0.00000000
H        1.40307756       4.05033604      12.29121606        2       1.00000000       0.00000000       0.00000000       0.00000000
H        4.20923268       4.05033604      12.29121606        2       1.00000000       0.00000000       0.00000000       0.00000000
H        0.00000000       0.00000000      14.58243212        1       1.00000000       0.00000000       0.00000000       0.00000000
H        2.80615512       0.00000000      14.58243212        1       1.00000000       0.00000000       0.00000000       0.00000000
H        1.40307756       2.43020162      14.58243212        1       1.00000000       0.00000000       0.00000000       0.00000000
H        4.20923268       2.43020162      14.58243212        1       1.00000000       0.00000000       0.00000000       0.00000000
H        5.03549513       2.14355241       5.24220758        0       1.00000000       1.86325776      -2.37169962      -0.08948243
H        1.92961799       3.33232788       1.50926809        0       1.00000000      -0.56699462      -0.48775639       0.21042654
H        2.47416460       4.47634150      23.94201071        0       1.00000000       0.75180544       0.53893085      -0.20496998
H        1.62984369       1.85768842       3.71657465        0       1.00000000      -2.34945097       0.03667652       0.32781371
H        2.78312572       0.44976822      18.77009900        0       1.00000000       0.17073169       0.63649003      -1.29324634
H        0.65226282       0.67111081       0.78972852        0       1.00000000       0.63606460      -0.63595751       1.26592947
18
Lattice="5.612310241546866 0.0 0.0 0.0 4.860403243099165 0.0 0.0 0.0 24.582432123328676" Properties=species:S:1:pos:R:3:tags:I:1:masses:R:1:momenta:R:3 KEmax=23.26679191048647 iter=1199 volume=670.5618179858607 ns_energy=1.6061871332282325 last_walked_iter_clone=1075 ns_P=0.0 config_n_global=1199 ns_KE=9.507377535876433 pbc="T T F"