18
Lattice="5.612310241546866 0.0 0.0 0.0 4.860403243099165 0.0 0.0 0.0 24.582432123328676" Properties=species:S:1:pos:R:3:tags:I:1:masses:R:1:momenta:R:3:forces:R:3 KEmax=23.26679191048647 iter=57123 volume=670.5618179858607 ns_energy=-11.638031159705164 last_walked_iter_clone=57029 energy=-11.638031219421725 stress="0.022596091426583774 2.120739565052726e-06 -2.600329152317659e-06 2.120739565052726e-06 0.02270713442002101 -3.2312168597769803e-06 -2.600329152317659e-06 -3.2312168597769803e-06 0.012286191000666418" pbc="T T F"
H        1.40307756       0.81006721      10.00000000        3       1.00000000       0.00000000       0.00000000       0.00000000       0.00000000       0.00000000       0.00000000
H        4.20923268       0.81006721      10.00000000        3       1.00000000       0.00000000       0.00000000       0.00000000       0.00000000       0.00000000       0.00000000
H        0.00000000       3.24026883      10.00000000        3       1.00000000       0.00000000       0.00000000       0.00000000       0.00000000       0.00000000       0.00000000
H        2.80615512       3.24026883      10.00000000        3       1.00000000       0.00000000       0.00000000       0.00000000       0.00000000       0.00000000       0.00000000
H        0.00000000       1.62013441      12.29121606        2       1.00000000       0.00000000       0.00000000       0.00000000       0.00000000       0.00000000       0.00000000
H        2.80615512       1.62013441      12.29121606        2       1.00000000       0.00000000       0.00000000       0.00000000       0.00000000       0.00000000       0.00000000
H        1.40307756       4.05033604      12.29121606        2       1.00000000       0.00000000       0.00000000       0.00000000       0.00000000       0.00000000       0.00000000
H        4.20923268       4.05033604      12.29121606        2       1.00000000       0.00000000       0.00000000       0.00000000       0.00000000       0.00000000       0.00000000
H        0.00000000       0.00000000      14.58243212        1       1.00000000       0.00000000       0.00000000       0.00000000       0.00000000       0.00000000       0.00000000
H        2.80615512       0.00000000      14.58243212        1       1.00000000       0.00000000       0.00000000       0.00000000       0.00000000       0.00000000       0.00000000
H        1.40307756       2.43020162      14.58243212        1       1.00000000       0.00000000       0.00000000       0.00000000       0.00000000       0.00000000       0.00000000
H        4.20923268       2.43020162      14.58243212        1       1.00000000       0.00000000       0.00000000       0.00000000       0.00000000       0.00000000       0.00000000
H        1.40326142       4.05022337       7.77120788        0       1.00000000       0.00007162       0.00006280      -0.00002505      -0.00064820       0.00055095       0.00011291
H        5.61240874       1.62012169       7.77140759        0       1.00000000       0.00018023       0.00008121       0.00023135      -0.00005598      -0.00074756       0.00010730
H        0.00968735       1.61999108      16.81106264        0       1.00000000      -0.00000121      -0.00008081      -0.00007580       0.00003099      -0.00020384       0.00006587
H        4.20930505       4.05031774       7.77114763        0       1.00000000      -0.00019587      -0.00020365      -0.00021100       0.00019730       0.00060721      -0.00040620
H        4.19932247       4.05005933      16.81121473        0       1.00000000      -0.00015238      -0.00001377      -0.00006814      -0.00001873       0.00013901      -0.00034094
H        2.80618131       1.62020288       7.77130141        0       1.00000000       0.00004870       0.00022291      -0.00018671       0.00023205      -0.00083174       0.00022643
18
Lattice="5.612310241546866 0.0 0.0 0.0 4.860403243099165 0.0 0.0 0.0 24.582432123328676" Properties=species:S:1:pos:R:3:tags:I:1:masses:R:1:momenta:R:3:forces:R:3 KEmax=23.26679191048647 iter=57123 volume=670.5618179858607 ns_energy=-11.63803117402129 last_walked_iter_clone=57071 energy=-11.638031219421725 stress="0.022596091426583774 2.120739565052726e-06 -2.600329152317659e-06 2.120739565052726e-06 0.02270713442002101 -3.2312168597769803e-06 -2.600329152317659e-06 -3.2312168597769803e-06 0.012286191000666418" pbc="T T F"
H        1.40307756       0.81006721      10.00000000        3       1.00000000       0.00000000       0.00000000       0.00000000       0.00000000       0.00000000       0.00000000
H        4.20923268       0.81006721      10.00000000        3       1.00000000       0.00000000       0.00000000       0.00000000       0.00000000       0.00000000       0.00000000
H        0.00000000       3.24026883      10.00000000        3       1.00000000       0.00000000       0.00000000       0.00000000       0.00000000       0.00000000       0.00000000
H        2.80615512       3.24026883      10.00000000        3       1.00000000       0.00000000       0.00000000       0.00000000       0.00000000       0.00000000       0.00000000
H        0.00000000       1.62013441      12.29121606        2       1.00000000       0.00000000       0.00000000       0.00000000       0.00000000       0.00000000       0.00000000
H        2.80615512       1.62013441      12.29121606        2       1.00000000       0.00000000       0.00000000       0.00000000       0.00000000       0.00000000       0.00000000
H        1.40307756       4.05033604      12.29121606        2       1.00000000       0.00000000       0.00000000       0.00000000       0.00000000       0.00000000       0.00000000
H        4.20923268       4.05033604      12.29121606        2       1.00000000       0.00000000       0.00000000       0.00000000       0.00000000       0.00000000       0.00000000
H        0.00000000       0.00000000      14.58243212        1       1.00000000       0.00000000       0.00000000       0.00000000       0.00000000       0.00000000       0.00000000
H        2.80615512       0.00000000      14.58243212        1       1.00000000       0.00000000       0.00000000       0.00000000       0.00000000       0.00000000       0.00000000
H        1.40307756       2.43020162      14.58243212        1       1.00000000       0.00000000       0.00000000       0.00000000       0.00000000       0.00000000       0.00000000
H        4.20923268       2.43020162      14.58243212        1       1.00000000       0.00000000       0.00000000       0.00000000       0.00000000       0.00000000       0.00000000
H        1.40292160       4.05027267       7.77126983        0       1.00000000       0.00003658       0.00005238      -0.00022427      -0.00064820       0.00055095       0.00011291
H        5.61216948       1.62004872       7.77119748        0       1.00000000      -0.00023918      -0.00003001      -0.00017452      -0.00005598      -0.00074756       0.00010730
H        0.00982847       1.61998782      16.81119037        0       1.00000000      -0.00014379       0.00003226       0.00009231       0.00003099      -0.00020384       0.00006587
H        4.20916684       4.05021937       7.77115441        0       1.00000000      -0.00025230      -0.00024596      -0.00003446       0.00019730       0.00060721      -0.00040620
H        4.19905760       4.05029637      16.81120414        0       1.00000000       0.00003831       0.00013566       0.00010820      -0.00001873       0.00013901      -0.00034094
H        2.80599266       1.61998756       7.77129322        0       1.00000000      -0.00017902       0.00013553       0.00006540       0.00023205      -0.00083174       0.00022643
18
Lattice="5.612310241546866 0.0 0.0 0.0 4.860403243099165 0.0 0.0 0.0 24.582432123328676" Properties=species:S:1:pos:R:3:tags:I:1:masses:R:1:momenta:R:3:forces:R:3 KEmax=23.26679191048647 iter=57123 volume=670.5618179858607 ns_energy=-11.638031159786623 last_walked_iter_clone=57087 energy=-11.638031219421725 stress="0.022596091426583774 2.120739565052726e-06 -2.600329152317659e-06 2.120739565052726e-06 0.02270713442002101 -3.2312168597769803e-06 -2.600329152317659e-06 -3.2312168597769803e-06 0.012286191000666418" pbc="T T F"
H        1.40307756       0.81006721      10.00000000        3       1.00000000       0.00000000       0.00000000       0.00000000       0.00000000       0.00000000       0.00000000
H        4.20923268       0.81006721      10.00000000        3       1.00000000       0.00000000       0.00000000       0.00000000       0.00000000       0.00000000       0.00000000
H        0.00000000       3.24026883      10.00000000        3       1.00000000       0.00000000       0.00000000       0.00000000       0.00000000       0.00000000       0.00000000
H        2.80615512       3.24026883      10.00000000        3       1.00000000       0.00000000       0.00000000       0.00000000       0.00000000       0.00000000       0.00000000
H        0.00000000       1.62013441      12.29121606        2       1.00000000       0.00000000       0.00000000       0.00000000       0.00000000       0.00000000       0.00000000
H        2.80615512       1.62013441      12.29121606        2       1.00000000       0.00000000       0.00000000       0.00000000       0.00000000       0.00000000       0.00000000
H        1.40307756       4.05033604      12.29121606        2       1.00000000       0.00000000       0.00000000       0.00000000       0.00000000       0.00000000       0.00000000
H        4.20923268       4.05033604      12.29121606        2       1.00000000       0.00000000       0.00000000       0.00000000       0.00000000       0.00000000       0.00000000
H        0.00000000       0.00000000      14.58243212        1       1.00000000       0.00000000       0.00000000       0.00000000       0.00000000       0.00000000       0.00000000
H        2.80615512       0.00000000      14.58243212        1       1.00000000       0.00000000       0.00000000       0.00000000       0.00000000       0.00000000       0.00000000
H        1.40307756       2.43020162      14.58243212        1       1.00000000       0.00000000       0.00000000       0.00000000       0.00000000       0.00000000       0.00000000
H        4.20923268       2.43020162      14.58243212        1       1.00000000       0.00000000       0.00000000       0.00000000       0.00000000       0.00000000       0.00000000
H        1.40311088       4.05042026       7.77125124        0       1.00000000       0.00010069       0.00010283      -0.00003421      -0.00064820       0.00055095       0.00011291
H        5.61240133       1.62020377       7.77118219        0       1.00000000       0.00019989      -0.00011592      -0.00011966      -0.00005598      -0.00074756       0.00010730
H        0.00975790       1.62016859      16.81113821        0       1.00000000       0.00000390       0.00009388       0.00007416       0.00003099      -0.00020384       0.00006587
H        4.20926033       4.05034082       7.77139522        0       1.00000000       0.00001295      -0.00009799      -0.00025244       0.00019730       0.00060721      -0.00040620
H        4.19896013       4.05002044      16.81093690        0       1.00000000       0.00005017      -0.00014238       0.00013705      -0.00001873       0.00013901      -0.00034094
H        2.80631687       1.62022301       7.77135634        0       1.00000000       0.00010098      -0.00015767      -0.00002444       0.00023205      -0.00083174       0.00022643
18
Lattice="5.612310241546866 0.0 0.0 0.0 4.860403243099165 0.0 0.0 0.0 24.582432123328676" Properties=species:S:1:pos:R:3:tags:I:1:masses:R:1:momenta:R:3:forces:R:3 KEmax=23.26679191048647 iter=57123 volume=670.5618179858607 ns_energy=-11.638031161505054 last_walked_iter_clone=57054 energy=-11.638031219421725 stress="0.022596091426583774 2.120739565052726e-06 -2.600329152317659e-06 2.120739565052726e-06 0.02270713442002101 -3.2312168597769803e-06 -2.600329152317659e-06 -3.2312168597769803e-06 0.012286191000666418" pbc="T T F"
H        1.40307756       0.81006721      10.00000000        3       1.00000000       0.00000000       0.00000000       0.00000000       0.00000000       0.00000000       0.00000000
H        4.20923268       0.81006721      10.00000000        3       1.00000000       0.00000000       0.00000000       0.00000000       0.00000000       0.00000000       0.00000000
H        0.00000000       3.24026883      10.00000000        3       1.00000000       0.00000000       0.00000000       0.00000000       0.00000000       0.00000000       0.00000000
H        2.80615512       3.24026883      10.00000000        3       1.00000000       0.00000000       0.00000000       0.00000000       0.00000000       0.00000000       0.00000000
H        0.00000000       1.62013441      12.29121606        2       1.00000000       0.00000000       0.00000000       0.00000000       0.00000000       0.00000000       0.00000000
H        2.80615512       1.62013441      12.29121606        2       1.00000000       0.00000000       0.00000000       0.00000000       0.00000000       0.00000000       0.00000000
H        1.40307756       4.05033604      12.29121606        2       1.00000000       0.00000000       0.00000000       0.00000000       0.00000000       0.00000000       0.00000000
H        4.20923268       4.05033604      12.29121606        2       1.00000000       0.00000000       0.00000000       0.00000000       0.00000000       0.00000000       0.00000000
H        0.00000000       0.00000000      14.58243212        1       1.00000000       0.00000000       0.00000000       0.00000000       0.00000000       0.00000000       0.00000000
H        2.80615512       0.00000000      14.58243212        1       1.00000000       0.00000000       0.00000000       0.00000000       0.00000000       0.00000000       0.00000000
H        1.40307756       2.43020162      14.58243212        1       1.00000000       0.00000000       0.00000000       0.00000000       0.00000000       0.00000000       0.00000000
H        4.20923268       2.43020162      14.58243212        1       1.00000000       0.00000000       0.00000000       0.00000000       0.00000000       0.00000000       0.00000000
H        1.40329540       4.05024274       7.77129972        0       1.00000000      -0.00003155       0.00012772       0.00001359      -0.00064820       0.00055095       0.00011291
H        0.00030783       1.62019242       7.77142257        0       1.00000000       0.00004469      -0.00010119      -0.00005760      -0.00005598      -0.00074756       0.00010730
H        0.00999070       1.62004379      16.81112114        0       1.00000000      -0.00011963      -0.00018564       0.00012949       0.00003099      -0.00020384       0.00006587
H        4.20930782       4.05014445       7.77142373        0       1.00000000       0.00002688      -0.00013686       0.00001637       0.00019730       0.00060721      -0.00040620
H        4.19936354       4.05043960      16.81133291        0       1.00000000       0.00001518       0.00004187       0.00011865      -0.00001873       0.00013901      -0.00034094
H        2.80636761       1.62008836       7.77144703        0       1.00000000      -0.00016143       0.00008885      -0.00021650       0.00023205      -0.00083174       0.00022643
18
Lattice="5.612310241546866 0.0 0.0 0.0 4.860403243099165 0.0 0.0 0.0 24.582432123328676" Properties=species:S:1:pos:R:3:tags:I:1:masses:R:1:momenta:R:3:forces:R:3 KEmax=23.26679191048647 iter=57123 volume=670.5618179858607 ns_energy=-11.638031160753611 last_walked_iter_clone=57093 energy=-11.638031219421725 stress="0.022596091426583774 2.120739565052726e-06 -2.600329152317659e-06 2.120739565052726e-06 0.02270713442002101 -3.2312168597769803e-06 -2.600329152317659e-06 -3.2312168597769803e-06 0.012286191000666418" pbc="T T F"
H        1.40307756       0.81006721      10.00000000        3       1.00000000       0.00000000       0.00000000       0.00000000       0.00000000       0.00000000       0.00000000
H        4.20923268       0.81006721      10.00000000        3       1.00000000       0.00000000       0.00000000       0.00000000       0.00000000       0.00000000       0.00000000
H        0.00000000       3.24026883      10.00000000        3       1.00000000       0.00000000       0.00000000       0.00000000       0.00000000       0.00000000       0.00000000
H        2.80615512       3.24026883      10.00000000        3       1.00000000       0.00000000       0.00000000       0.00000000       0.00000000       0.00000000       0.00000000
H        0.00000000       1.62013441      12.29121606        2       1.00000000       0.00000000       0.00000000       0.00000000       0.00000000       0.00000000       0.00000000
H        2.80615512       1.62013441      12.29121606        2       1.00000000       0.00000000       0.00000000       0.00000000       0.00000000       0.00000000       0.00000000
H        1.40307756       4.05033604      12.29121606        2       1.00000000       0.00000000       0.00000000       0.00000000       0.00000000       0.00000000       0.00000000
H        4.20923268       4.05033604      12.29121606        2       1.00000000       0.00000000       0.00000000       0.00000000       0.00000000       0.00000000       0.00000000
H        0.00000000       0.00000000      14.58243212        1       1.00000000       0.00000000       0.00000000       0.00000000       0.00000000       0.00000000       0.00000000
H        2.80615512       0.00000000      14.58243212        1       1.00000000       0.00000000       0.00000000       0.00000000       0.00000000       0.00000000       0.00000000
H        1.40307756       2.43020162      14.58243212        1       1.00000000       0.00000000       0.00000000       0.00000000       0.00000000       0.00000000       0.00000000
H        4.20923268       2.43020162      14.58243212        1       1.00000000       0.00000000       0.00000000       0.00000000       0.00000000       0.00000000       0.00000000
H        1.40306379       4.05045616       7.77135194        0       1.00000000      -0.00002377      -0.00002100      -0.00032792      -0.00064820       0.00055095       0.00011291
H        5.61251462       1.62008890       7.77126701        0       1.00000000      -0.00000502      -0.00001758       0.00009261      -0.00005598      -0.00074756       0.00010730
H        0.00991991       1.61999905      16.81109170        0       1.00000000       0.00007975       0.00006210       0.00035135       0.00003099      -0.00020384       0.00006587
H        4.20920439       4.05033042       7.77129858        0       1.00000000       0.00002099       0.00006097       0.00024404       0.00019730       0.00060721      -0.00040620
H        4.19922871       4.05016293      16.81099281        0       1.00000000       0.00011633       0.00013337       0.00023423      -0.00001873       0.00013901      -0.00034094
H        2.80634980       1.62021347       7.77157253        0       1.00000000       0.00004476       0.00016321      -0.00003137       0.00023205      -0.00083174       0.00022643
18
Lattice="5.612310241546866 0.0 0.0 0.0 4.860403243099165 0.0 0.0 0.0 24.582432123328676" Properties=species:S:1:pos:R:3:tags:I:1:masses:R:1:momenta:R:3:forces:R:3 KEmax=23.26679191048647 iter=57123 volume=670.5618179858607 ns_energy=-11.6380311734055 last_walked_iter_clone=57083 energy=-11.638031219421725 stress="0.022596091426583774 2.120739565052726e-06 -2.600329152317659e-06 2.120739565052726e-06 0.02270713442002101 -3.2312168597769803e-06 -2.600329152317659e-06 -3.2312168597769803e-06 0.012286191000666418" pbc="T T F"
H        1.40307756       0.81006721      10.00000000        3       1.00000000       0.00000000       0.00000000       0.00000000       0.00000000       0.00000000       0.00000000
H        4.20923268       0.81006721      10.00000000        3       1.00000000       0.00000000       0.00000000       0.00000000       0.00000000       0.00000000       0.00000000
H        0.00000000       3.24026883      10.00000000        3       1.00000000       0.00000000       0.00000000       0.00000000       0.00000000       0.00000000       0.00000000
H        2.80615512       3.24026883      10.00000000        3       1.00000000       0.00000000       0.00000000       0.00000000       0.00000000       0.00000000       0.00000000
H        0.00000000       1.62013441      12.29121606        2       1.00000000       0.00000000       0.00000000       0.00000000       0.00000000       0.00000000       0.00000000
H        2.80615512       1.62013441      12.29121606        2       1.00000000       0.00000000       0.00000000       0.00000000       0.00000000       0.00000000       0.00000000
H        1.40307756       4.05033604      12.29121606        2       1.00000000       0.00000000       0.00000000       0.00000000       0.00000000       0.00000000       0.00000000
H        4.20923268       4.05033604      12.29121606        2       1.00000000       0.00000000       0.00000000       0.00000000       0.00000000       0.00000000       0.00000000
H        0.00000000       0.00000000      14.58243212        1       1.00000000       0.00000000       0.00000000       0.00000000       0.00000000       0.00000000       0.00000000
H        2.80615512       0.00000000      14.58243212        1       1.00000000       0.00000000       0.00000000       0.00000000       0.00000000       0.00000000       0.00000000
H        1.40307756       2.43020162      14.58243212        1       1.00000000       0.00000000       0.00000000       0.00000000       0.00000000       0.00000000       0.00000000
H        4.20923268       2.43020162      14.58243212        1       1.00000000       0.00000000       0.00000000       0.00000000       0.00000000       0.00000000       0.00000000
H        1.40311050       4.05028902       7.77122183        0       1.00000000      -0.00037616      -0.00035397       0.00007017      -0.00064820       0.00055095       0.00011291
H       -0.00009306       1.62006123       7.77139926        0       1.00000000       0.00017467       0.00005148      -0.00003795      -0.00005598      -0.00074756       0.00010730
H        0.01016150       1.62024529      16.81110846        0       1.00000000       0.00013512       0.00008240      -0.00006243       0.00003099      -0.00020384       0.00006587
H        4.20913037       4.05023600       7.77141232        0       1.00000000       0.00004570      -0.00000293      -0.00009659       0.00019730       0.00060721      -0.00040620
H        4.19930859       4.05043893      16.81109682        0       1.00000000       0.00009598      -0.00007751       0.00015097      -0.00001873       0.00013901      -0.00034094
H        2.80610161       1.61993866       7.77137671        0       1.00000000      -0.00001009      -0.00002953       0.00029781       0.00023205      -0.00083174       0.00022643
18
Lattice="5.612310241546866 0.0 0.0 0.0 4.860403243099165 0.0 0.0 0.0 24.582432123328676" Properties=species:S:1:pos:R:3:tags:I:1:masses:R:1:momenta:R:3:forces:R:3 KEmax=23.26679191048647 iter=57123 volume=670.5618179858607 ns_energy=-11.638031156602146 last_walked_iter_clone=56965 energy=-11.638031219421725 stress="0.022596091426583774 2.120739565052726e-06 -2.600329152317659e-06 2.120739565052726e-06 0.02270713442002101 -3.2312168597769803e-06 -2.600329152317659e-06 -3.2312168597769803e-06 0.012286191000666418" pbc="T T F"
H        1.40307756       0.81006721      10.00000000        3       1.00000000       0.00000000       0.00000000       0.00000000       0.00000000       0.00000000       0.00000000
H        4.20923268       0.81006721      10.00000000        3       1.00000000       0.00000000       0.00000000       0.00000000       0.00000000       0.00000000       0.00000000
H        0.00000000       3.24026883      10.00000000        3       1.00000000       0.00000000       0.00000000       0.00000000       0.00000000       0.00000000       0.00000000
H        2.80615512       3.24026883      10.00000000        3       1.00000000       0.00000000       0.00000000       0.00000000       0.00000000       0.00000000       0.00000000
H        0.00000000       1.62013441      12.29121606        2       1.00000000       0.00000000       0.00000000       0.00000000       0.00000000       0.00000000       0.00000000
H        2.80615512       1.62013441      12.29121606        2       1.00000000       0.00000000       0.00000000       0.00000000       0.00000000       0.00000000       0.00000000
H        1.40307756       4.05033604      12.29121606        2       1.00000000       0.00000000       0.00000000       0.00000000       0.00000000       0.00000000       0.00000000
H        4.20923268       4.05033604      12.29121606        2       1.00000000       0.00000000       0.00000000       0.00000000       0.00000000       0.00000000       0.00000000
H        0.00000000       0.00000000      14.58243212        1       1.00000000       0.00000000       0.00000000       0.00000000       0.00000000       0.00000000       0.00000000
H        2.80615512       0.00000000      14.58243212        1       1.00000000       0.00000000       0.00000000       0.00000000       0.00000000       0.00000000       0.00000000
H        1.40307756       2.43020162      14.58243212        1       1.00000000       0.00000000       0.00000000       0.00000000       0.00000000       0.00000000       0.00000000
H        4.20923268       2.43020162      14.58243212        1       1.00000000       0.00000000       0.00000000       0.00000000       0.00000000       0.00000000       0.00000000
H        1.40291434       4.05022302       7.77124213        0       1.00000000      -0.00002767       0.00005272       0.00017987      -0.00064820       0.00055095       0.00011291
H        5.61214057       1.62015851       7.77139490        0       1.00000000       0.00004291      -0.00007169      -0.00015066      -0.00005598      -0.00074756       0.00010730
H        0.00975957       1.62005874      16.81111298        0       1.00000000      -0.00020444      -0.00020629      -0.00011777       0.00003099      -0.00020384       0.00006587
H        4.20915254       4.05043207       7.77153846        0       1.00000000       0.00007089      -0.00012039      -0.00008277       0.00019730       0.00060721      -0.00040620
H        4.19927737       4.05016013      16.81123955        0       1.00000000      -0.00007851      -0.00010662       0.00021660      -0.00001873       0.00013901      -0.00034094
H        2.80628519       1.62014841       7.77136538        0       1.00000000       0.00003525      -0.00016932       0.00008572       0.00023205      -0.00083174       0.00022643
18
Lattice="5.612310241546866 0.0 0.0 0.0 4.860403243099165 0.0 0.0 0.0 24.582432123328676" Properties=species:S:1:pos:R:3:tags:I:1:masses:R:1:momenta:R:3:forces:R:3 KEmax=23.26679191048647 iter=57123 volume=670.5618179858607 ns_energy=-11.638031158278425 last_walked_iter_clone=57014 energy=-11.638031219421725 stress="0.022596091426583774 2.120739565052726e-06 -2.600329152317659e-06 2.120739565052726e-06 0.02270713442002101 -3.2312168597769803e-06 -2.600329152317659e-06 -3.2312168597769803e-06 0.012286191000666418" pbc="T T F"
H        1.40307756       0.81006721      10.00000000        3       1.00000000       0.00000000       0.00000000       0.00000000       0.00000000       0.00000000       0.00000000
H        4.20923268       0.81006721      10.00000000        3       1.00000000       0.00000000       0.00000000       0.00000000       0.00000000       0.00000000       0.00000000
H        0.00000000       3.24026883      10.00000000        3       1.00000000       0.00000000       0.00000000       0.00000000       0.00000000       0.00000000       0.00000000
H        2.80615512       3.24026883      10.00000000        3       1.00000000       0.00000000       0.00000000       0.00000000       0.00000000       0.00000000       0.00000000
H        0.00000000       1.62013441      12.29121606        2       1.00000000       0.00000000       0.00000000       0.00000000       0.00000000       0.00000000       0.00000000
H        2.80615512       1.62013441      12.29121606        2       1.00000000       0.00000000       0.00000000       0.00000000       0.00000000       0.00000000       0.00000000
H        1.40307756       4.05033604      12.29121606        2       1.00000000       0.00000000       0.00000000       0.00000000       0.00000000       0.00000000       0.00000000
H        4.20923268       4.05033604      12.29121606        2       1.00000000       0.00000000       0.00000000       0.00000000       0.00000000       0.00000000       0.00000000
H        0.00000000       0.00000000      14.58243212        1       1.00000000       0.00000000       0.00000000       0.00000000       0.00000000       0.00000000       0.00000000
H        2.80615512       0.00000000      14.58243212        1       1.00000000       0.00000000       0.00000000       0.00000000       0.00000000       0.00000000       0.00000000
H        1.40307756       2.43020162      14.58243212        1       1.00000000       0.00000000       0.00000000       0.00000000       0.00000000       0.00000000       0.00000000
H        4.20923268       2.43020162      14.58243212        1       1.00000000       0.00000000       0.00000000       0.00000000       0.00000000       0.00000000       0.00000000
H        1.40318375       4.05016998       7.77122272        0       1.00000000      -0.00028476      -0.00003709      -0.00019346      -0.00064820       0.00055095       0.00011291
H        0.00001752       1.61995440       7.77127580        0       1.00000000      -0.00004311       0.00031074      -0.00023390      -0.00005598      -0.00074756       0.00010730
H        0.00975410       1.62006879      16.81116667        0       1.00000000       0.00009591       0.00010817      -0.00008089       0.00003099      -0.00020384       0.00006587