21
Lattice="5.612310241546866 0.0 0.0 0.0 4.860403243099165 0.0 0.0 0.0 44.58243212332868" Properties=species:S:1:pos:R:3:tags:I:1:masses:R:1:momenta:R:3:forces:R:3 KEmax=27.14459056223422 iter=100295 volume=1216.1236359717223 set_wall=T ns_energy=-14.105465987566937 last_walked_iter_clone=100062 energy=-14.105530304002581 stress="0.021133085763528275 -1.1525949478403714e-05 4.617963275044599e-05 -1.1525949478403714e-05 0.021203974814977527 1.0035531536661255e-05 4.617963275044599e-05 1.0035531536661255e-05 0.009171227385491355" pbc="T T F"
H        1.40307756       0.81006721      20.00000000        3       1.00000000       0.00000000       0.00000000       0.00000000       0.00000000       0.00000000       0.00000000
H        4.20923268       0.81006721      20.00000000        3       1.00000000       0.00000000       0.00000000       0.00000000       0.00000000       0.00000000       0.00000000
H        0.00000000       3.24026883      20.00000000        3       1.00000000       0.00000000       0.00000000       0.00000000       0.00000000       0.00000000       0.00000000
H        2.80615512       3.24026883      20.00000000        3       1.00000000       0.00000000       0.00000000       0.00000000       0.00000000       0.00000000       0.00000000
H        0.00000000       1.62013441      22.29121606        2       1.00000000       0.00000000       0.00000000       0.00000000       0.00000000       0.00000000       0.00000000
H        2.80615512       1.62013441      22.29121606        2       1.00000000       0.00000000       0.00000000       0.00000000       0.00000000       0.00000000       0.00000000
H        1.40307756       4.05033604      22.29121606        2       1.00000000       0.00000000       0.00000000       0.00000000       0.00000000       0.00000000       0.00000000
H        4.20923268       4.05033604      22.29121606        2       1.00000000       0.00000000       0.00000000       0.00000000       0.00000000       0.00000000       0.00000000
H        0.00000000       0.00000000      24.58243212        1       1.00000000       0.00000000       0.00000000       0.00000000       0.00000000       0.00000000       0.00000000
H        2.80615512       0.00000000      24.58243212        1       1.00000000       0.00000000       0.00000000       0.00000000       0.00000000       0.00000000       0.00000000
H        1.40307756       2.43020162      24.58243212        1       1.00000000       0.00000000       0.00000000       0.00000000       0.00000000       0.00000000       0.00000000
H        4.20923268       2.43020162      24.58243212        1       1.00000000       0.00000000       0.00000000       0.00000000       0.00000000       0.00000000       0.00000000
H        1.40525597       2.41174274      29.00635328        0       1.00000000       0.00033523      -0.00360782       0.00220031      -0.00854873       0.00226521       0.00033752
H        2.81427799       0.00265045      29.00256905        0       1.00000000      -0.00328650       0.00113407       0.00003930       0.00374701       0.00373447       0.00320537
H        2.81209609       1.62133316      26.79077089        0       1.00000000      -0.00668068       0.00215610      -0.00043835       0.00015526      -0.00310759      -0.00566530
H        4.21007552       2.43681360      29.04200438        0       1.00000000       0.00025205      -0.00264168       0.00176990       0.00620398      -0.00248761       0.00277641
H        1.40468006       4.04778912      26.79129585        0       1.00000000       0.00066471       0.00159149       0.00295503      -0.00768793      -0.00314246       0.00440461
H        5.61062142       1.62203880      26.79134742        0       1.00000000       0.00175705      -0.00040691       0.00034407       0.00465699       0.00232327      -0.00079391
H        1.40410914       4.05453446      31.21859864        0       1.00000000      -0.00323692       0.00076971      -0.00005730      -0.00284478       0.00032252      -0.00001187
H        4.20860683       4.04426118      26.78910448        0       1.00000000      -0.00163141      -0.00217932      -0.00071307       0.00192096       0.00220215      -0.00910287
H        5.60316078       0.00179108      29.00087564        0       1.00000000       0.00071840       0.00145293      -0.00306963       0.00010249      -0.00380839       0.00813443
21
Lattice="5.612310241546866 0.0 0.0 0.0 4.860403243099165 0.0 0.0 0.0 44.58243212332868" Properties=species:S:1:pos:R:3:tags:I:1:masses:R:1:momenta:R:3:forces:R:3 KEmax=27.14459056223422 iter=100295 volume=1216.1236359717223 set_wall=T ns_energy=-14.105468967631326 last_walked_iter_clone=100291 energy=-14.105530304002581 stress="0.021133085763528275 -1.1525949478403714e-05 4.617963275044599e-05 -1.1525949478403714e-05 0.021203974814977527 1.0035531536661255e-05 4.617963275044599e-05 1.0035531536661255e-05 0.009171227385491355" pbc="T T F"
H        1.40307756       0.81006721      20.00000000        3       1.00000000       0.00000000       0.00000000       0.00000000       0.00000000       0.00000000       0.00000000
H        4.20923268       0.81006721      20.00000000        3       1.00000000       0.00000000       0.00000000       0.00000000       0.00000000       0.00000000       0.00000000
H        0.00000000       3.24026883      20.00000000        3       1.00000000       0.00000000       0.00000000       0.00000000       0.00000000       0.00000000       0.00000000
H        2.80615512       3.24026883      20.00000000        3       1.00000000       0.00000000       0.00000000       0.00000000       0.00000000       0.00000000       0.00000000
H        0.00000000       1.62013441      22.29121606        2       1.00000000       0.00000000       0.00000000       0.00000000       0.00000000       0.00000000       0.00000000
H        2.80615512       1.62013441      22.29121606        2       1.00000000       0.00000000       0.00000000       0.00000000       0.00000000       0.00000000       0.00000000
H        1.40307756       4.05033604      22.29121606        2       1.00000000       0.00000000       0.00000000       0.00000000       0.00000000       0.00000000       0.00000000
H        4.20923268       4.05033604      22.29121606        2       1.00000000       0.00000000       0.00000000       0.00000000       0.00000000       0.00000000       0.00000000
H        0.00000000       0.00000000      24.58243212        1       1.00000000       0.00000000       0.00000000       0.00000000       0.00000000       0.00000000       0.00000000
H        2.80615512       0.00000000      24.58243212        1       1.00000000       0.00000000       0.00000000       0.00000000       0.00000000       0.00000000       0.00000000
H        1.40307756       2.43020162      24.58243212        1       1.00000000       0.00000000       0.00000000       0.00000000       0.00000000       0.00000000       0.00000000
H        4.20923268       2.43020162      24.58243212        1       1.00000000       0.00000000       0.00000000       0.00000000       0.00000000       0.00000000       0.00000000
H        1.40368452       2.41605357      29.00611483        0       1.00000000      -0.00200198      -0.00029782       0.00012875      -0.00854873       0.00226521       0.00033752
H        2.81640980       0.00549591      29.00018997        0       1.00000000      -0.00111543       0.00133649      -0.00346449       0.00374701       0.00373447       0.00320537
H        2.80848677       1.62508113      26.79009456        0       1.00000000       0.00166178       0.00221114      -0.00233159       0.00015526      -0.00310759      -0.00566530
H        4.21082483       2.43956767      29.04000623        0       1.00000000      -0.00307238       0.00231804      -0.00381836       0.00620398      -0.00248761       0.00277641
H        1.40369421       4.05097974      26.79202649        0       1.00000000       0.00217652       0.00130002       0.00020298      -0.00768793      -0.00314246       0.00440461
H        5.60768879       1.62113303      26.79131704        0       1.00000000      -0.00044237      -0.00422590       0.00126534       0.00465699       0.00232327      -0.00079391
H        1.40428813       4.05692693      31.21983743        0       1.00000000       0.00003541       0.00307498      -0.00150187      -0.00284478       0.00032252      -0.00001187
H        4.21019837       4.04358461      26.78849215        0       1.00000000       0.00040175       0.00241055      -0.00039624       0.00192096       0.00220215      -0.00910287
H        5.60568182       0.00531159      29.00098233        0       1.00000000      -0.00366435      -0.00143501      -0.00185771       0.00010249      -0.00380839       0.00813443
21
Lattice="5.612310241546866 0.0 0.0 0.0 4.860403243099165 0.0 0.0 0.0 44.58243212332868" Properties=species:S:1:pos:R:3:tags:I:1:masses:R:1:momenta:R:3:forces:R:3 KEmax=27.14459056223422 iter=100295 volume=1216.1236359717223 set_wall=T ns_energy=-14.105463722158355 last_walked_iter_clone=100146 energy=-14.105530304002581 stress="0.021133085763528275 -1.1525949478403714e-05 4.617963275044599e-05 -1.1525949478403714e-05 0.021203974814977527 1.0035531536661255e-05 4.617963275044599e-05 1.0035531536661255e-05 0.009171227385491355" pbc="T T F"
H        1.40307756       0.81006721      20.00000000        3       1.00000000       0.00000000       0.00000000       0.00000000       0.00000000       0.00000000       0.00000000
H        4.20923268       0.81006721      20.00000000        3       1.00000000       0.00000000       0.00000000       0.00000000       0.00000000       0.00000000       0.00000000
H        0.00000000       3.24026883      20.00000000        3       1.00000000       0.00000000       0.00000000       0.00000000       0.00000000       0.00000000       0.00000000
H        2.80615512       3.24026883      20.00000000        3       1.00000000       0.00000000       0.00000000       0.00000000       0.00000000       0.00000000       0.00000000
H        0.00000000       1.62013441      22.29121606        2       1.00000000       0.00000000       0.00000000       0.00000000       0.00000000       0.00000000       0.00000000
H        2.80615512       1.62013441      22.29121606        2       1.00000000       0.00000000       0.00000000       0.00000000       0.00000000       0.00000000       0.00000000
H        1.40307756       4.05033604      22.29121606        2       1.00000000       0.00000000       0.00000000       0.00000000       0.00000000       0.00000000       0.00000000
H        4.20923268       4.05033604      22.29121606        2       1.00000000       0.00000000       0.00000000       0.00000000       0.00000000       0.00000000       0.00000000
H        0.00000000       0.00000000      24.58243212        1       1.00000000       0.00000000       0.00000000       0.00000000       0.00000000       0.00000000       0.00000000
H        2.80615512       0.00000000      24.58243212        1       1.00000000       0.00000000       0.00000000       0.00000000       0.00000000       0.00000000       0.00000000
H        1.40307756       2.43020162      24.58243212        1       1.00000000       0.00000000       0.00000000       0.00000000       0.00000000       0.00000000       0.00000000
H        4.20923268       2.43020162      24.58243212        1       1.00000000       0.00000000       0.00000000       0.00000000       0.00000000       0.00000000       0.00000000
H        1.40494478       2.41323422      29.01050130        0       1.00000000      -0.00263747       0.00303986      -0.00060167      -0.00854873       0.00226521       0.00033752
H        2.81466154       0.00369149      29.00083070        0       1.00000000      -0.00222659       0.00245560      -0.00230859       0.00374701       0.00373447       0.00320537
H        2.80991179       1.62244471      26.79334420        0       1.00000000       0.00018070      -0.00185876      -0.00138900       0.00015526      -0.00310759      -0.00566530
H        4.21215099       2.43917743      29.04066284        0       1.00000000       0.00031461      -0.00189529       0.00177372       0.00620398      -0.00248761       0.00277641
H        1.40220602       4.04637798      26.79215917        0       1.00000000      -0.00079651      -0.00121453      -0.00070866      -0.00768793      -0.00314246       0.00440461
H        5.60921408       1.62218646      26.79179305        0       1.00000000       0.00041089      -0.00079311      -0.00305821       0.00465699       0.00232327      -0.00079391
H        1.40650458       4.05003806      31.22097377        0       1.00000000       0.00043980      -0.00168879      -0.00041462      -0.00284478       0.00032252      -0.00001187
H        4.20724282       4.04703588      26.78856112        0       1.00000000       0.00395243       0.00342682      -0.00068743       0.00192096       0.00220215      -0.00910287
H        5.60642899       0.00492149      29.00004926        0       1.00000000       0.00011345       0.00170879       0.00155247       0.00010249      -0.00380839       0.00813443
21
Lattice="5.612310241546866 0.0 0.0 0.0 4.860403243099165 0.0 0.0 0.0 44.58243212332868" Properties=species:S:1:pos:R:3:tags:I:1:masses:R:1:momenta:R:3:forces:R:3 KEmax=27.14459056223422 iter=100295 volume=1216.1236359717223 set_wall=T ns_energy=-14.105465827826265 last_walked_iter_clone=100189 energy=-14.105530304002581 stress="0.021133085763528275 -1.1525949478403714e-05 4.617963275044599e-05 -1.1525949478403714e-05 0.021203974814977527 1.0035531536661255e-05 4.617963275044599e-05 1.0035531536661255e-05 0.009171227385491355" pbc="T T F"
H        1.40307756       0.81006721      20.00000000        3       1.00000000       0.00000000       0.00000000       0.00000000       0.00000000       0.00000000       0.00000000
H        4.20923268       0.81006721      20.00000000        3       1.00000000       0.00000000       0.00000000       0.00000000       0.00000000       0.00000000       0.00000000
H        0.00000000       3.24026883      20.00000000        3       1.00000000       0.00000000       0.00000000       0.00000000       0.00000000       0.00000000       0.00000000
H        2.80615512       3.24026883      20.00000000        3       1.00000000       0.00000000       0.00000000       0.00000000       0.00000000       0.00000000       0.00000000
H        0.00000000       1.62013441      22.29121606        2       1.00000000       0.00000000       0.00000000       0.00000000       0.00000000       0.00000000       0.00000000
H        2.80615512       1.62013441      22.29121606        2       1.00000000       0.00000000       0.00000000       0.00000000       0.00000000       0.00000000       0.00000000
H        1.40307756       4.05033604      22.29121606        2       1.00000000       0.00000000       0.00000000       0.00000000       0.00000000       0.00000000       0.00000000
H        4.20923268       4.05033604      22.29121606        2       1.00000000       0.00000000       0.00000000       0.00000000       0.00000000       0.00000000       0.00000000
H        0.00000000       0.00000000      24.58243212        1       1.00000000       0.00000000       0.00000000       0.00000000       0.00000000       0.00000000       0.00000000
H        2.80615512       0.00000000      24.58243212        1       1.00000000       0.00000000       0.00000000       0.00000000       0.00000000       0.00000000       0.00000000
H        1.40307756       2.43020162      24.58243212        1       1.00000000       0.00000000       0.00000000       0.00000000       0.00000000       0.00000000       0.00000000
H        4.20923268       2.43020162      24.58243212        1       1.00000000       0.00000000       0.00000000       0.00000000       0.00000000       0.00000000       0.00000000
H        1.40504007       2.41448496      29.00390855        0       1.00000000      -0.00057333       0.00262805       0.00295656      -0.00854873       0.00226521       0.00033752
H        2.81535589       0.00345297      29.00138366        0       1.00000000      -0.00182655       0.00447423      -0.00517516       0.00374701       0.00373447       0.00320537
H        2.81122291       1.62240307      26.79258216        0       1.00000000      -0.00296223       0.00075271       0.00045506       0.00015526      -0.00310759      -0.00566530
H        4.21139920       2.43846078      29.03897944        0       1.00000000      -0.00198249       0.00129319       0.00005182       0.00620398      -0.00248761       0.00277641
H        1.40309142       4.05277668      26.79200647        0       1.00000000       0.00231236       0.00022681      -0.00028921      -0.00768793      -0.00314246       0.00440461
H        5.60969850       1.62360233      26.79063267        0       1.00000000       0.00096175      -0.00199732       0.00056155       0.00465699       0.00232327      -0.00079391
H        1.40232037       4.04573128      31.22023430        0       1.00000000       0.00024205      -0.00231721      -0.00133192      -0.00284478       0.00032252      -0.00001187
H        4.20836750       4.04612855      26.78786607        0       1.00000000       0.00426749       0.00316536      -0.00126943       0.00192096       0.00220215      -0.00910287
H        5.60622460       0.00524768      28.99896618        0       1.00000000       0.00066979      -0.00091161      -0.00059991       0.00010249      -0.00380839       0.00813443
21
Lattice="5.612310241546866 0.0 0.0 0.0 4.860403243099165 0.0 0.0 0.0 44.58243212332868" Properties=species:S:1:pos:R:3:tags:I:1:masses:R:1:momenta:R:3:forces:R:3 KEmax=27.14459056223422 iter=100295 volume=1216.1236359717223 set_wall=T ns_energy=-14.1054630428314 last_walked_iter_clone=100152 energy=-14.105530304002581 stress="0.021133085763528275 -1.1525949478403714e-05 4.617963275044599e-05 -1.1525949478403714e-05 0.021203974814977527 1.0035531536661255e-05 4.617963275044599e-05 1.0035531536661255e-05 0.009171227385491355" pbc="T T F"
H        1.40307756       0.81006721      20.00000000        3       1.00000000       0.00000000       0.00000000       0.00000000       0.00000000       0.00000000       0.00000000
H        4.20923268       0.81006721      20.00000000        3       1.00000000       0.00000000       0.00000000       0.00000000       0.00000000       0.00000000       0.00000000
H        0.00000000       3.24026883      20.00000000        3       1.00000000       0.00000000       0.00000000       0.00000000       0.00000000       0.00000000       0.00000000
H        2.80615512       3.24026883      20.00000000        3       1.00000000       0.00000000       0.00000000       0.00000000       0.00000000       0.00000000       0.00000000
H        0.00000000       1.62013441      22.29121606        2       1.00000000       0.00000000       0.00000000       0.00000000       0.00000000       0.00000000       0.00000000
H        2.80615512       1.62013441      22.29121606        2       1.00000000       0.00000000       0.00000000       0.00000000       0.00000000       0.00000000       0.00000000
H        1.40307756       4.05033604      22.29121606        2       1.00000000       0.00000000       0.00000000       0.00000000       0.00000000       0.00000000       0.00000000
H        4.20923268       4.05033604      22.29121606        2       1.00000000       0.00000000       0.00000000       0.00000000       0.00000000       0.00000000       0.00000000
H        0.00000000       0.00000000      24.58243212        1       1.00000000       0.00000000       0.00000000       0.00000000       0.00000000       0.00000000       0.00000000
H        2.80615512       0.00000000      24.58243212        1       1.00000000       0.00000000       0.00000000       0.00000000       0.00000000       0.00000000       0.00000000
H        1.40307756       2.43020162      24.58243212        1       1.00000000       0.00000000       0.00000000       0.00000000       0.00000000       0.00000000       0.00000000
H        4.20923268       2.43020162      24.58243212        1       1.00000000       0.00000000       0.00000000       0.00000000       0.00000000       0.00000000       0.00000000
H        1.40346264       2.41281437      29.00704179        0       1.00000000       0.00038294       0.00402318       0.00319966      -0.00854873       0.00226521       0.00033752
H        2.81721757       0.00631953      28.99986842        0       1.00000000       0.00160907      -0.00189720       0.00252898       0.00374701       0.00373447       0.00320537
H        2.81273997       1.62428594      26.78981877        0       1.00000000      -0.00051855       0.00275124      -0.00059589       0.00015526      -0.00310759      -0.00566530
H        4.20855599       2.44194127      29.04075552        0       1.00000000      -0.00196693       0.00363450      -0.00147764       0.00620398      -0.00248761       0.00277641
H        1.40352484       4.05110302      26.79359172        0       1.00000000       0.00184717      -0.00162706      -0.00295491      -0.00768793      -0.00314246       0.00440461
H        5.61041249       1.62241671      26.79086398        0       1.00000000      -0.00264115       0.00324479       0.00074916       0.00465699       0.00232327      -0.00079391
H        1.40413111       4.04769644      31.21933754        0       1.00000000      -0.00015935       0.00163950      -0.00136882      -0.00284478       0.00032252      -0.00001187
H        4.21128586       4.04613002      26.79074046        0       1.00000000      -0.00245343       0.00013196       0.00105653       0.00192096       0.00220215      -0.00910287
H        5.60708725       0.00469254      29.00210209        0       1.00000000      -0.00302310      -0.00020154      -0.00087530       0.00010249      -0.00380839       0.00813443
21
Lattice="5.612310241546866 0.0 0.0 0.0 4.860403243099165 0.0 0.0 0.0 44.58243212332868" Properties=species:S:1:pos:R:3:tags:I:1:masses:R:1:momenta:R:3:forces:R:3 KEmax=27.14459056223422 iter=100295 volume=1216.1236359717223 set_wall=T ns_energy=-14.105463932042774 last_walked_iter_clone=100122 energy=-14.105530304002581 stress="0.021133085763528275 -1.1525949478403714e-05 4.617963275044599e-05 -1.1525949478403714e-05 0.021203974814977527 1.0035531536661255e-05 4.617963275044599e-05 1.0035531536661255e-05 0.009171227385491355" pbc="T T F"
H        1.40307756       0.81006721      20.00000000        3       1.00000000       0.00000000       0.00000000       0.00000000       0.00000000       0.00000000       0.00000000
H        4.20923268       0.81006721      20.00000000        3       1.00000000       0.00000000       0.00000000       0.00000000       0.00000000       0.00000000       0.00000000
H        0.00000000       3.24026883      20.00000000        3       1.00000000       0.00000000       0.00000000       0.00000000       0.00000000       0.00000000       0.00000000
H        2.80615512       3.24026883      20.00000000        3       1.00000000       0.00000000       0.00000000       0.00000000       0.00000000       0.00000000       0.00000000
H        0.00000000       1.62013441      22.29121606        2       1.00000000       0.00000000       0.00000000       0.00000000       0.00000000       0.00000000       0.00000000
H        2.80615512       1.62013441      22.29121606        2       1.00000000       0.00000000       0.00000000       0.00000000       0.00000000       0.00000000       0.00000000
H        1.40307756       4.05033604      22.29121606        2       1.00000000       0.00000000       0.00000000       0.00000000       0.00000000       0.00000000       0.00000000
H        4.20923268       4.05033604      22.29121606        2       1.00000000       0.00000000       0.00000000       0.00000000       0.00000000       0.00000000       0.00000000
H        0.00000000       0.00000000      24.58243212        1       1.00000000       0.00000000       0.00000000       0.00000000       0.00000000       0.00000000       0.00000000
H        2.80615512       0.00000000      24.58243212        1       1.00000000       0.00000000       0.00000000       0.00000000       0.00000000       0.00000000       0.00000000
H        1.40307756       2.43020162      24.58243212        1       1.00000000       0.00000000       0.00000000       0.00000000       0.00000000       0.00000000       0.00000000
H        4.20923268       2.43020162      24.58243212        1       1.00000000       0.00000000       0.00000000       0.00000000       0.00000000       0.00000000       0.00000000
H        1.40179693       2.41325790      29.00600506        0       1.00000000      -0.00057143      -0.00428738      -0.00106206      -0.00854873       0.00226521       0.00033752
H        2.81101579       0.00335469      29.00374918        0       1.00000000      -0.00217979       0.00344769      -0.00008597       0.00374701       0.00373447       0.00320537
H        2.80884879       1.62358773      26.79088097        0       1.00000000       0.00116280       0.00218995       0.00148844       0.00015526      -0.00310759      -0.00566530
H        4.20598776       2.43959354      29.04254188        0       1.00000000       0.00427237       0.00235681       0.00246333       0.00620398      -0.00248761       0.00277641
H        1.40306675       4.04997082      26.79086866        0       1.00000000      -0.00431909       0.00123122       0.00002580      -0.00768793      -0.00314246       0.00440461
H        5.60595639       1.62241727      26.79202247        0       1.00000000       0.00011530      -0.00383395      -0.00101437       0.00465699       0.00232327      -0.00079391
H        1.40194985       4.04634843      31.22054207        0       1.00000000       0.00275461      -0.00063143       0.00163222      -0.00284478       0.00032252      -0.00001187
H        4.20843625       4.04560935      26.78840781        0       1.00000000       0.00324316      -0.00116638      -0.00060152       0.00192096       0.00220215      -0.00910287
H        5.60018845       0.00287672      29.00144263        0       1.00000000       0.00181407       0.00197134       0.00136893       0.00010249      -0.00380839       0.00813443
21
Lattice="5.612310241546866 0.0 0.0 0.0 4.860403243099165 0.0 0.0 0.0 44.58243212332868" Properties=species:S:1:pos:R:3:tags:I:1:masses:R:1:momenta:R:3:forces:R:3 KEmax=27.14459056223422 iter=100295 volume=1216.1236359717223 set_wall=T ns_energy=-14.105463628565744 last_walked_iter_clone=100239 energy=-14.105530304002581 stress="0.021133085763528275 -1.1525949478403714e-05 4.617963275044599e-05 -1.1525949478403714e-05 0.021203974814977527 1.0035531536661255e-05 4.617963275044599e-05 1.0035531536661255e-05 0.009171227385491355" pbc="T T F"
H        1.40307756       0.81006721      20.00000000        3       1.00000000       0.00000000       0.00000000       0.00000000       0.00000000       0.00000000       0.00000000
H        4.20923268       0.81006721      20.00000000        3       1.00000000       0.00000000       0.00000000       0.00000000       0.00000000       0.00000000       0.00000000
H        0.00000000       3.24026883      20.00000000        3       1.00000000       0.00000000       0.00000000       0.00000000       0.00000000       0.00000000       0.00000000
H        2.80615512       3.24026883      20.00000000        3       1.00000000       0.00000000       0.00000000       0.00000000       0.00000000       0.00000000       0.00000000
H        0.00000000       1.62013441      22.29121606        2       1.00000000       0.00000000       0.00000000       0.00000000       0.00000000       0.00000000       0.00000000
H        2.80615512       1.62013441      22.29121606        2       1.00000000       0.00000000       0.00000000       0.00000000       0.00000000       0.00000000       0.00000000
H        1.40307756       4.05033604      22.29121606        2       1.00000000       0.00000000       0.00000000       0.00000000       0.00000000       0.00000000       0.00000000
H        4.20923268       4.05033604      22.29121606        2       1.00000000       0.00000000       0.00000000       0.00000000       0.00000000       0.00000000       0.00000000
H        0.00000000       0.00000000      24.58243212        1       1.00000000       0.00000000       0.00000000       0.00000000       0.00000000       0.00000000       0.00000000
H        2.80615512       0.00000000      24.58243212        1       1.00000000       0.00000000       0.00000000       0.00000000       0.00000000       0.00000000       0.00000000
H        1.40307756       2.43020162      24.58243212        1       1.00000000       0.00000000       0.00000000       0.00000000       0.00000000       0.00000000       0.00000000
H        4.20923268       2.43020162      24.58243212        1       1.00000000       0.00000000       0.00000000       0.00000000       0.00000000       0.00000000       0.00000000
H        1.40623076       2.41342274      29.00664729        0       1.00000000      -0.00041664      -0.00727491      -0.00118232      -0.00854873       0.00226521       0.00033752
H        2.81553067       0.00471964      29.00096806        0       1.00000000       0.00209708      -0.00076695       0.00239808       0.00374701       0.00373447       0.00320537
H        2.80924957       1.62400176      26.78979172        0       1.00000000       0.00322587       0.00399294      -0.00170592       0.00015526      -0.00310759      -0.00566530
H        4.21263841       2.44104420      29.04030252        0       1.00000000      -0.00279207       0.00013981      -0.00164343       0.00620398      -0.00248761       0.00277641
H        1.40241929       4.05121524      26.79355712        0       1.00000000       0.00033204      -0.00097502      -0.00009300      -0.00768793      -0.00314246       0.00440461