21
Lattice="5.612310241546866 0.0 0.0 0.0 4.860403243099165 0.0 0.0 0.0 44.58243212332868" Properties=species:S:1:pos:R:3:tags:I:1:masses:R:1:momenta:R:3:forces:R:3 KEmax=27.14459056223422 iter=73403 volume=1216.1236359717223 set_wall=T ns_energy=-14.101446934944248 last_walked_iter_clone=73368 energy=-14.102737932114858 stress="0.021153960875955686 -8.235537978836769e-05 5.069122346312196e-05 -8.235537978836769e-05 0.021045004987694262 0.00013040055094122198 5.069122346312196e-05 0.00013040055094122198 0.009004944465982788" pbc="T T F"
H        1.40307756       0.81006721      20.00000000        3       1.00000000       0.00000000       0.00000000       0.00000000       0.00000000       0.00000000       0.00000000
H        4.20923268       0.81006721      20.00000000        3       1.00000000       0.00000000       0.00000000       0.00000000       0.00000000       0.00000000       0.00000000
H        0.00000000       3.24026883      20.00000000        3       1.00000000       0.00000000       0.00000000       0.00000000       0.00000000       0.00000000       0.00000000
H        2.80615512       3.24026883      20.00000000        3       1.00000000       0.00000000       0.00000000       0.00000000       0.00000000       0.00000000       0.00000000
H        0.00000000       1.62013441      22.29121606        2       1.00000000       0.00000000       0.00000000       0.00000000       0.00000000       0.00000000       0.00000000
H        2.80615512       1.62013441      22.29121606        2       1.00000000       0.00000000       0.00000000       0.00000000       0.00000000       0.00000000       0.00000000
H        1.40307756       4.05033604      22.29121606        2       1.00000000       0.00000000       0.00000000       0.00000000       0.00000000       0.00000000       0.00000000
H        4.20923268       4.05033604      22.29121606        2       1.00000000       0.00000000       0.00000000       0.00000000       0.00000000       0.00000000       0.00000000
H        0.00000000       0.00000000      24.58243212        1       1.00000000       0.00000000       0.00000000       0.00000000       0.00000000       0.00000000       0.00000000
H        2.80615512       0.00000000      24.58243212        1       1.00000000       0.00000000       0.00000000       0.00000000       0.00000000       0.00000000       0.00000000
H        1.40307756       2.43020162      24.58243212        1       1.00000000       0.00000000       0.00000000       0.00000000       0.00000000       0.00000000       0.00000000
H        4.20923268       2.43020162      24.58243212        1       1.00000000       0.00000000       0.00000000       0.00000000       0.00000000       0.00000000       0.00000000
H        1.41357853       2.42590404      29.00397119        0       1.00000000       0.00449165      -0.00348477       0.01013060       0.01338924      -0.01349745      -0.01618840
H        2.83361988      -0.00502091      29.01096819        0       1.00000000      -0.00695641       0.00137749      -0.01597519       0.06132633       0.00352495      -0.00264016
H        2.81664491       1.62484330      26.79283907        0       1.00000000       0.00928645       0.01004766      -0.01381017      -0.01459337      -0.01591531       0.00820714
H        4.21949308       2.43115699      29.06681537        0       1.00000000       0.00081706      -0.00998609       0.00326667      -0.02178201       0.02184245      -0.01660698
H        1.41337966       4.06062522      26.79462368        0       1.00000000       0.00036042       0.00134231      -0.01069413       0.00046665      -0.00558346      -0.01025312
H        5.62520341       1.62745986      26.79384110        0       1.00000000      -0.00795730       0.01129064      -0.00399304       0.00028547      -0.02876614       0.06334838
H        1.41041786       4.04127109      31.22541870        0       1.00000000      -0.00627162       0.00526300       0.02047414      -0.01865272       0.01010659      -0.00483354
H        4.21752211       4.04209128      26.78860638        0       1.00000000      -0.01933245       0.02724120      -0.00096491       0.01236249       0.05876411       0.08672664
H        0.01353060      -0.01279383      29.00527239        0       1.00000000      -0.00977896      -0.00007432       0.00602673      -0.02729623      -0.04039756      -0.00955582
21
Lattice="5.612310241546866 0.0 0.0 0.0 4.860403243099165 0.0 0.0 0.0 44.58243212332868" Properties=species:S:1:pos:R:3:tags:I:1:masses:R:1:momenta:R:3:forces:R:3 KEmax=27.14459056223422 iter=73403 volume=1216.1236359717223 set_wall=T ns_energy=-14.101305521726896 last_walked_iter_clone=73291 energy=-14.102737932114858 stress="0.021153960875955686 -8.235537978836769e-05 5.069122346312196e-05 -8.235537978836769e-05 0.021045004987694262 0.00013040055094122198 5.069122346312196e-05 0.00013040055094122198 0.009004944465982788" pbc="T T F"
H        1.40307756       0.81006721      20.00000000        3       1.00000000       0.00000000       0.00000000       0.00000000       0.00000000       0.00000000       0.00000000
H        4.20923268       0.81006721      20.00000000        3       1.00000000       0.00000000       0.00000000       0.00000000       0.00000000       0.00000000       0.00000000
H        0.00000000       3.24026883      20.00000000        3       1.00000000       0.00000000       0.00000000       0.00000000       0.00000000       0.00000000       0.00000000
H        2.80615512       3.24026883      20.00000000        3       1.00000000       0.00000000       0.00000000       0.00000000       0.00000000       0.00000000       0.00000000
H        0.00000000       1.62013441      22.29121606        2       1.00000000       0.00000000       0.00000000       0.00000000       0.00000000       0.00000000       0.00000000
H        2.80615512       1.62013441      22.29121606        2       1.00000000       0.00000000       0.00000000       0.00000000       0.00000000       0.00000000       0.00000000
H        1.40307756       4.05033604      22.29121606        2       1.00000000       0.00000000       0.00000000       0.00000000       0.00000000       0.00000000       0.00000000
H        4.20923268       4.05033604      22.29121606        2       1.00000000       0.00000000       0.00000000       0.00000000       0.00000000       0.00000000       0.00000000
H        0.00000000       0.00000000      24.58243212        1       1.00000000       0.00000000       0.00000000       0.00000000       0.00000000       0.00000000       0.00000000
H        2.80615512       0.00000000      24.58243212        1       1.00000000       0.00000000       0.00000000       0.00000000       0.00000000       0.00000000       0.00000000
H        1.40307756       2.43020162      24.58243212        1       1.00000000       0.00000000       0.00000000       0.00000000       0.00000000       0.00000000       0.00000000
H        4.20923268       2.43020162      24.58243212        1       1.00000000       0.00000000       0.00000000       0.00000000       0.00000000       0.00000000       0.00000000
H        1.40596526       2.41438899      28.99859883        0       1.00000000      -0.00731875       0.01210539       0.01035030       0.01338924      -0.01349745      -0.01618840
H        2.80746409       0.02173437      28.99212177        0       1.00000000      -0.02630963      -0.01914564      -0.00628575       0.06132633       0.00352495      -0.00264016
H        2.79468110       1.62031095      26.77641788        0       1.00000000       0.00608298      -0.01818620      -0.01596056      -0.01459337      -0.01591531       0.00820714
H        4.19386071       2.45267095      29.03081639        0       1.00000000       0.01726959      -0.01896689      -0.01636544      -0.02178201       0.02184245      -0.01660698
H        1.39762737       4.06314237      26.78307532        0       1.00000000       0.01045163       0.00523194      -0.00880811       0.00046665      -0.00558346      -0.01025312
H        5.59303309       1.62874396      26.79030023        0       1.00000000       0.00426149      -0.00662013      -0.00770821       0.00028547      -0.02876614       0.06334838
H        1.38644033       4.06679223      31.20709850        0       1.00000000       0.01216022      -0.00045426      -0.00526624      -0.01865272       0.01010659      -0.00483354
H        4.20010997       4.04757870      26.78498124        0       1.00000000       0.00578642      -0.00231050      -0.01137270       0.01236249       0.05876411       0.08672664
H        5.60800344       0.01553107      29.00112764        0       1.00000000      -0.00899530      -0.00057991      -0.00897668      -0.02729623      -0.04039756      -0.00955582
21
Lattice="5.612310241546866 0.0 0.0 0.0 4.860403243099165 0.0 0.0 0.0 44.58243212332868" Properties=species:S:1:pos:R:3:tags:I:1:masses:R:1:momenta:R:3:forces:R:3 KEmax=27.14459056223422 iter=73403 volume=1216.1236359717223 set_wall=T ns_energy=-14.101329973320626 last_walked_iter_clone=73243 energy=-14.102737932114858 stress="0.021153960875955686 -8.235537978836769e-05 5.069122346312196e-05 -8.235537978836769e-05 0.021045004987694262 0.00013040055094122198 5.069122346312196e-05 0.00013040055094122198 0.009004944465982788" pbc="T T F"
H        1.40307756       0.81006721      20.00000000        3       1.00000000       0.00000000       0.00000000       0.00000000       0.00000000       0.00000000       0.00000000
H        4.20923268       0.81006721      20.00000000        3       1.00000000       0.00000000       0.00000000       0.00000000       0.00000000       0.00000000       0.00000000
H        0.00000000       3.24026883      20.00000000        3       1.00000000       0.00000000       0.00000000       0.00000000       0.00000000       0.00000000       0.00000000
H        2.80615512       3.24026883      20.00000000        3       1.00000000       0.00000000       0.00000000       0.00000000       0.00000000       0.00000000       0.00000000
H        0.00000000       1.62013441      22.29121606        2       1.00000000       0.00000000       0.00000000       0.00000000       0.00000000       0.00000000       0.00000000
H        2.80615512       1.62013441      22.29121606        2       1.00000000       0.00000000       0.00000000       0.00000000       0.00000000       0.00000000       0.00000000
H        1.40307756       4.05033604      22.29121606        2       1.00000000       0.00000000       0.00000000       0.00000000       0.00000000       0.00000000       0.00000000
H        4.20923268       4.05033604      22.29121606        2       1.00000000       0.00000000       0.00000000       0.00000000       0.00000000       0.00000000       0.00000000
H        0.00000000       0.00000000      24.58243212        1       1.00000000       0.00000000       0.00000000       0.00000000       0.00000000       0.00000000       0.00000000
H        2.80615512       0.00000000      24.58243212        1       1.00000000       0.00000000       0.00000000       0.00000000       0.00000000       0.00000000       0.00000000
H        1.40307756       2.43020162      24.58243212        1       1.00000000       0.00000000       0.00000000       0.00000000       0.00000000       0.00000000       0.00000000
H        4.20923268       2.43020162      24.58243212        1       1.00000000       0.00000000       0.00000000       0.00000000       0.00000000       0.00000000       0.00000000
H        1.41652178       2.40516569      29.01129054        0       1.00000000       0.03097319       0.00453308      -0.00673753       0.01338924      -0.01349745      -0.01618840
H        2.84485298       4.85605613      29.00168690        0       1.00000000      -0.00312962       0.01703702       0.00681732       0.06132633       0.00352495      -0.00264016
H        2.82013263       1.62067650      26.79210237        0       1.00000000      -0.00953425      -0.01784827      -0.01591402      -0.01459337      -0.01591531       0.00820714
H        4.21657547       2.43256759      29.03953284        0       1.00000000      -0.01284222      -0.00019220       0.00707410      -0.02178201       0.02184245      -0.01660698
H        1.41589938       4.04980959      26.80115677        0       1.00000000       0.00800029      -0.00976107      -0.02724986       0.00046665      -0.00558346      -0.01025312
H        0.00897552       1.61509876      26.79000788        0       1.00000000      -0.01722356      -0.01233334      -0.00579933       0.00028547      -0.02876614       0.06334838
H        1.42682219       4.05149416      31.21659165        0       1.00000000      -0.01853770      -0.01539947       0.00133029      -0.01865272       0.01010659      -0.00483354
H        4.22319410       4.04344490      26.79558967        0       1.00000000       0.00100344      -0.00515165       0.03444461       0.01236249       0.05876411       0.08672664
H        5.63405807       4.84876194      29.00450271        0       1.00000000       0.00773202      -0.00049405       0.00202684      -0.02729623      -0.04039756      -0.00955582
21
Lattice="5.612310241546866 0.0 0.0 0.0 4.860403243099165 0.0 0.0 0.0 44.58243212332868" Properties=species:S:1:pos:R:3:tags:I:1:masses:R:1:momenta:R:3:forces:R:3 KEmax=27.14459056223422 iter=73403 volume=1216.1236359717223 set_wall=T ns_energy=-14.101321339489395 last_walked_iter_clone=72725 energy=-14.102737932114858 stress="0.021153960875955686 -8.235537978836769e-05 5.069122346312196e-05 -8.235537978836769e-05 0.021045004987694262 0.00013040055094122198 5.069122346312196e-05 0.00013040055094122198 0.009004944465982788" pbc="T T F"
H        1.40307756       0.81006721      20.00000000        3       1.00000000       0.00000000       0.00000000       0.00000000       0.00000000       0.00000000       0.00000000
H        4.20923268       0.81006721      20.00000000        3       1.00000000       0.00000000       0.00000000       0.00000000       0.00000000       0.00000000       0.00000000
H        0.00000000       3.24026883      20.00000000        3       1.00000000       0.00000000       0.00000000       0.00000000       0.00000000       0.00000000       0.00000000
H        2.80615512       3.24026883      20.00000000        3       1.00000000       0.00000000       0.00000000       0.00000000       0.00000000       0.00000000       0.00000000
H        0.00000000       1.62013441      22.29121606        2       1.00000000       0.00000000       0.00000000       0.00000000       0.00000000       0.00000000       0.00000000
H        2.80615512       1.62013441      22.29121606        2       1.00000000       0.00000000       0.00000000       0.00000000       0.00000000       0.00000000       0.00000000
H        1.40307756       4.05033604      22.29121606        2       1.00000000       0.00000000       0.00000000       0.00000000       0.00000000       0.00000000       0.00000000
H        4.20923268       4.05033604      22.29121606        2       1.00000000       0.00000000       0.00000000       0.00000000       0.00000000       0.00000000       0.00000000
H        0.00000000       0.00000000      24.58243212        1       1.00000000       0.00000000       0.00000000       0.00000000       0.00000000       0.00000000       0.00000000
H        2.80615512       0.00000000      24.58243212        1       1.00000000       0.00000000       0.00000000       0.00000000       0.00000000       0.00000000       0.00000000
H        1.40307756       2.43020162      24.58243212        1       1.00000000       0.00000000       0.00000000       0.00000000       0.00000000       0.00000000       0.00000000
H        4.20923268       2.43020162      24.58243212        1       1.00000000       0.00000000       0.00000000       0.00000000       0.00000000       0.00000000       0.00000000
H        1.41659874       2.41979602      29.01209866        0       1.00000000       0.00451756      -0.01844609      -0.00250924       0.01338924      -0.01349745      -0.01618840
H        2.82605306       0.00981226      28.99841166        0       1.00000000      -0.00386742       0.00001403      -0.01615355       0.06132633       0.00352495      -0.00264016
H        2.81682575       1.62574776      26.79058449        0       1.00000000      -0.00592621      -0.00168773       0.01423396      -0.01459337      -0.01591531       0.00820714
H        4.23060790       2.44590830      29.05552157        0       1.00000000       0.00950106      -0.02134416       0.00231342      -0.02178201       0.02184245      -0.01660698
H        1.39699994       4.05845716      26.78937367        0       1.00000000      -0.01605712       0.00998264      -0.00339359       0.00046665      -0.00558346      -0.01025312
H        5.62602779       1.61700436      26.79534134        0       1.00000000      -0.00541241      -0.01709995      -0.00377693       0.00028547      -0.02876614       0.06334838
H        1.43553078       4.05111921      31.22436967        0       1.00000000       0.02260306       0.00105914      -0.00234751      -0.01865272       0.01010659      -0.00483354
H        4.20518483       4.04793473      26.80375704        0       1.00000000       0.01271084      -0.01586897       0.01286181       0.01236249       0.05876411       0.08672664
H       -0.00828709       0.01918850      29.02383138        0       1.00000000      -0.01174197      -0.00406240      -0.00680379      -0.02729623      -0.04039756      -0.00955582
21
Lattice="5.612310241546866 0.0 0.0 0.0 4.860403243099165 0.0 0.0 0.0 44.58243212332868" Properties=species:S:1:pos:R:3:tags:I:1:masses:R:1:momenta:R:3:forces:R:3 KEmax=27.14459056223422 iter=73403 volume=1216.1236359717223 set_wall=T ns_energy=-14.101421172251005 last_walked_iter_clone=73216 energy=-14.102737932114858 stress="0.021153960875955686 -8.235537978836769e-05 5.069122346312196e-05 -8.235537978836769e-05 0.021045004987694262 0.00013040055094122198 5.069122346312196e-05 0.00013040055094122198 0.009004944465982788" pbc="T T F"
H        1.40307756       0.81006721      20.00000000        3       1.00000000       0.00000000       0.00000000       0.00000000       0.00000000       0.00000000       0.00000000
H        4.20923268       0.81006721      20.00000000        3       1.00000000       0.00000000       0.00000000       0.00000000       0.00000000       0.00000000       0.00000000
H        0.00000000       3.24026883      20.00000000        3       1.00000000       0.00000000       0.00000000       0.00000000       0.00000000       0.00000000       0.00000000
H        2.80615512       3.24026883      20.00000000        3       1.00000000       0.00000000       0.00000000       0.00000000       0.00000000       0.00000000       0.00000000
H        0.00000000       1.62013441      22.29121606        2       1.00000000       0.00000000       0.00000000       0.00000000       0.00000000       0.00000000       0.00000000
H        2.80615512       1.62013441      22.29121606        2       1.00000000       0.00000000       0.00000000       0.00000000       0.00000000       0.00000000       0.00000000
H        1.40307756       4.05033604      22.29121606        2       1.00000000       0.00000000       0.00000000       0.00000000       0.00000000       0.00000000       0.00000000
H        4.20923268       4.05033604      22.29121606        2       1.00000000       0.00000000       0.00000000       0.00000000       0.00000000       0.00000000       0.00000000
H        0.00000000       0.00000000      24.58243212        1       1.00000000       0.00000000       0.00000000       0.00000000       0.00000000       0.00000000       0.00000000
H        2.80615512       0.00000000      24.58243212        1       1.00000000       0.00000000       0.00000000       0.00000000       0.00000000       0.00000000       0.00000000
H        1.40307756       2.43020162      24.58243212        1       1.00000000       0.00000000       0.00000000       0.00000000       0.00000000       0.00000000       0.00000000
H        4.20923268       2.43020162      24.58243212        1       1.00000000       0.00000000       0.00000000       0.00000000       0.00000000       0.00000000       0.00000000
H        1.43540381       2.41882686      29.00576247        0       1.00000000      -0.00626851      -0.00482400       0.00380123       0.01338924      -0.01349745      -0.01618840
H        2.84642617       4.86672250      29.00489819        0       1.00000000       0.01893052      -0.00921056      -0.00551337       0.06132633       0.00352495      -0.00264016
H        2.82044877       1.62576438      26.79618724        0       1.00000000      -0.02038194       0.00231306       0.00280459      -0.01459337      -0.01591531       0.00820714
H        4.24677005       2.44500075      29.04382411        0       1.00000000       0.00861870       0.00085313      -0.00082164      -0.02178201       0.02184245      -0.01660698
H        1.41542081       4.05987888      26.79262230        0       1.00000000      -0.00152907      -0.00718673      -0.01323806       0.00046665      -0.00558346      -0.01025312
H        0.00436352       1.62734989      26.80386853        0       1.00000000      -0.00906100       0.01327447      -0.01281550       0.00028547      -0.02876614       0.06334838
H        1.44125581       4.05011519      31.20683451        0       1.00000000      -0.02721650       0.01249817      -0.00463294      -0.01865272       0.01010659      -0.00483354
H        4.21372261       4.05044675      26.78998250        0       1.00000000      -0.01415048      -0.01346196      -0.01631908       0.01236249       0.05876411       0.08672664
H        0.02899702       0.00438834      28.99865204        0       1.00000000       0.02621430      -0.00867372       0.01856172      -0.02729623      -0.04039756      -0.00955582
21
Lattice="5.612310241546866 0.0 0.0 0.0 4.860403243099165 0.0 0.0 0.0 44.58243212332868" Properties=species:S:1:pos:R:3:tags:I:1:masses:R:1:momenta:R:3:forces:R:3 KEmax=27.14459056223422 iter=73403 volume=1216.1236359717223 set_wall=T ns_energy=-14.101335711218796 last_walked_iter_clone=73256 energy=-14.102737932114858 stress="0.021153960875955686 -8.235537978836769e-05 5.069122346312196e-05 -8.235537978836769e-05 0.021045004987694262 0.00013040055094122198 5.069122346312196e-05 0.00013040055094122198 0.009004944465982788" pbc="T T F"
H        1.40307756       0.81006721      20.00000000        3       1.00000000       0.00000000       0.00000000       0.00000000       0.00000000       0.00000000       0.00000000
H        4.20923268       0.81006721      20.00000000        3       1.00000000       0.00000000       0.00000000       0.00000000       0.00000000       0.00000000       0.00000000
H        0.00000000       3.24026883      20.00000000        3       1.00000000       0.00000000       0.00000000       0.00000000       0.00000000       0.00000000       0.00000000
H        2.80615512       3.24026883      20.00000000        3       1.00000000       0.00000000       0.00000000       0.00000000       0.00000000       0.00000000       0.00000000
H        0.00000000       1.62013441      22.29121606        2       1.00000000       0.00000000       0.00000000       0.00000000       0.00000000       0.00000000       0.00000000
H        2.80615512       1.62013441      22.29121606        2       1.00000000       0.00000000       0.00000000       0.00000000       0.00000000       0.00000000       0.00000000
H        1.40307756       4.05033604      22.29121606        2       1.00000000       0.00000000       0.00000000       0.00000000       0.00000000       0.00000000       0.00000000
H        4.20923268       4.05033604      22.29121606        2       1.00000000       0.00000000       0.00000000       0.00000000       0.00000000       0.00000000       0.00000000
H        0.00000000       0.00000000      24.58243212        1       1.00000000       0.00000000       0.00000000       0.00000000       0.00000000       0.00000000       0.00000000
H        2.80615512       0.00000000      24.58243212        1       1.00000000       0.00000000       0.00000000       0.00000000       0.00000000       0.00000000       0.00000000
H        1.40307756       2.43020162      24.58243212        1       1.00000000       0.00000000       0.00000000       0.00000000       0.00000000       0.00000000       0.00000000
H        4.20923268       2.43020162      24.58243212        1       1.00000000       0.00000000       0.00000000       0.00000000       0.00000000       0.00000000       0.00000000
H        1.42052089       2.39140973      28.99779907        0       1.00000000       0.00120997       0.00528029       0.01425084       0.01338924      -0.01349745      -0.01618840
H        2.82337913       4.84752930      29.00490586        0       1.00000000       0.00110491      -0.02917882       0.01085299       0.06132633       0.00352495      -0.00264016
H        2.81416598       1.60422435      26.78929468        0       1.00000000       0.00017352       0.01746624      -0.00949223      -0.01459337      -0.01591531       0.00820714
H        4.21090834       2.41944274      29.03133585        0       1.00000000       0.00357650       0.01465323      -0.02737952      -0.02178201       0.02184245      -0.01660698
H        1.41386878       4.04675827      26.79578243        0       1.00000000      -0.01142044       0.00828423      -0.00710078       0.00046665      -0.00558346      -0.01025312
H        0.00287490       1.60399518      26.79503593        0       1.00000000      -0.00209233       0.00676534       0.00524076       0.00028547      -0.02876614       0.06334838
H        1.39565419       3.99915130      31.22195292        0       1.00000000       0.00761688      -0.01704295      -0.01255784      -0.01865272       0.01010659      -0.00483354
H        4.20563322       4.03239559      26.79322558        0       1.00000000      -0.01011087       0.01684074       0.02110092       0.01236249       0.05876411       0.08672664
H        5.61819707       4.84657131      29.00818627        0       1.00000000       0.00816248      -0.01740344      -0.01031536      -0.02729623      -0.04039756      -0.00955582
21
Lattice="5.612310241546866 0.0 0.0 0.0 4.860403243099165 0.0 0.0 0.0 44.58243212332868" Properties=species:S:1:pos:R:3:tags:I:1:masses:R:1:momenta:R:3:forces:R:3 KEmax=27.14459056223422 iter=73403 volume=1216.1236359717223 set_wall=T ns_energy=-14.101341751083789 last_walked_iter_clone=73166 energy=-14.102737932114858 stress="0.021153960875955686 -8.235537978836769e-05 5.069122346312196e-05 -8.235537978836769e-05 0.021045004987694262 0.00013040055094122198 5.069122346312196e-05 0.00013040055094122198 0.009004944465982788" pbc="T T F"
H        1.40307756       0.81006721      20.00000000        3       1.00000000       0.00000000       0.00000000       0.00000000       0.00000000       0.00000000       0.00000000
H        4.20923268       0.81006721      20.00000000        3       1.00000000       0.00000000       0.00000000       0.00000000       0.00000000       0.00000000       0.00000000
H        0.00000000       3.24026883      20.00000000        3       1.00000000       0.00000000       0.00000000       0.00000000       0.00000000       0.00000000       0.00000000
H        2.80615512       3.24026883      20.00000000        3       1.00000000       0.00000000       0.00000000       0.00000000       0.00000000       0.00000000       0.00000000
H        0.00000000       1.62013441      22.29121606        2       1.00000000       0.00000000       0.00000000       0.00000000       0.00000000       0.00000000       0.00000000
H        2.80615512       1.62013441      22.29121606        2       1.00000000       0.00000000       0.00000000       0.00000000       0.00000000       0.00000000       0.00000000
H        1.40307756       4.05033604      22.29121606        2       1.00000000       0.00000000       0.00000000       0.00000000       0.00000000       0.00000000       0.00000000
H        4.20923268       4.05033604      22.29121606        2       1.00000000       0.00000000       0.00000000       0.00000000       0.00000000       0.00000000       0.00000000
H        0.00000000       0.00000000      24.58243212        1       1.00000000       0.00000000       0.00000000       0.00000000       0.00000000       0.00000000       0.00000000
H        2.80615512       0.00000000      24.58243212        1       1.00000000       0.00000000       0.00000000       0.00000000       0.00000000       0.00000000       0.00000000
H        1.40307756       2.43020162      24.58243212        1       1.00000000       0.00000000       0.00000000       0.00000000       0.00000000       0.00000000       0.00000000
H        4.20923268       2.43020162      24.58243212        1       1.00000000       0.00000000       0.00000000       0.00000000       0.00000000       0.00000000       0.00000000
H        1.40840078       2.40384562      29.01373677        0       1.00000000       0.01456853      -0.00033048       0.01497266       0.01338924      -0.01349745      -0.01618840
H        2.80071707      -0.00711009      29.00864557        0       1.00000000      -0.00814082      -0.02503874      -0.01506009       0.06132633       0.00352495      -0.00264016
H        2.80671476       1.63002670      26.79616377        0       1.00000000       0.02680489      -0.00666952      -0.00074860      -0.01459337      -0.01591531       0.00820714
H        4.21013645       2.42513439      29.05955010        0       1.00000000      -0.00315419      -0.02278405       0.00813328      -0.02178201       0.02184245      -0.01660698
H        1.40159749       4.05433092      26.79969030        0       1.00000000      -0.00526090      -0.01787768       0.01271887       0.00046665      -0.00558346      -0.01025312