21
Lattice="5.612310241546866 0.0 0.0 0.0 4.860403243099165 0.0 0.0 0.0 44.58243212332868" Properties=species:S:1:pos:R:3:tags:I:1:masses:R:1:momenta:R:3:forces:R:3 KEmax=27.14459056223422 iter=38782 volume=1216.1236359717223 set_wall=T ns_energy=-13.73351213940503 last_walked_iter_clone=38731 energy=-13.862132345877555 stress="0.0208387908801052 0.0020335640789378314 0.0019385452374841964 0.0020335640789378314 0.018206441528600608 -0.003663615546169427 0.0019385452374841964 -0.003663615546169427 0.008424714524858889" pbc="T T F"
H        1.40307756       0.81006721      20.00000000        3       1.00000000       0.00000000       0.00000000       0.00000000       0.00000000       0.00000000       0.00000000
H        4.20923268       0.81006721      20.00000000        3       1.00000000       0.00000000       0.00000000       0.00000000       0.00000000       0.00000000       0.00000000
H        0.00000000       3.24026883      20.00000000        3       1.00000000       0.00000000       0.00000000       0.00000000       0.00000000       0.00000000       0.00000000
H        2.80615512       3.24026883      20.00000000        3       1.00000000       0.00000000       0.00000000       0.00000000       0.00000000       0.00000000       0.00000000
H        0.00000000       1.62013441      22.29121606        2       1.00000000       0.00000000       0.00000000       0.00000000       0.00000000       0.00000000       0.00000000
H        2.80615512       1.62013441      22.29121606        2       1.00000000       0.00000000       0.00000000       0.00000000       0.00000000       0.00000000       0.00000000
H        1.40307756       4.05033604      22.29121606        2       1.00000000       0.00000000       0.00000000       0.00000000       0.00000000       0.00000000       0.00000000
H        4.20923268       4.05033604      22.29121606        2       1.00000000       0.00000000       0.00000000       0.00000000       0.00000000       0.00000000       0.00000000
H        0.00000000       0.00000000      24.58243212        1       1.00000000       0.00000000       0.00000000       0.00000000       0.00000000       0.00000000       0.00000000
H        2.80615512       0.00000000      24.58243212        1       1.00000000       0.00000000       0.00000000       0.00000000       0.00000000       0.00000000       0.00000000
H        1.40307756       2.43020162      24.58243212        1       1.00000000       0.00000000       0.00000000       0.00000000       0.00000000       0.00000000       0.00000000
H        4.20923268       2.43020162      24.58243212        1       1.00000000       0.00000000       0.00000000       0.00000000       0.00000000       0.00000000       0.00000000
H        4.17926796       2.43488867      29.18541075        0       1.00000000      -0.07830792      -0.06477050       0.23438485       0.42383641       0.35143193       0.34886726
H        2.73814216       0.05375959      29.14874286        0       1.00000000       0.15142604      -0.01053026      -0.01574339       0.13649925       0.12634702       0.09390496
H        1.39673841       2.35999267      28.91330146        0       1.00000000      -0.08378880      -0.19865479       0.08882584      -0.38745308      -0.04093035      -0.11535306
H        2.39484521       3.08943414      31.33846638        0       1.00000000      -0.07912870      -0.24082308      -0.02061566       0.02009765       0.02841817      -0.23139682
H        2.77198049       3.23121241      26.78205400        0       1.00000000       0.17364827       0.01567238      -0.04807685      -0.23787992      -0.09919691      -0.19363175
H        4.06659363       0.76880205      26.83097316        0       1.00000000      -0.03200566       0.09918893      -0.33503837      -0.05424445      -0.31296745      -0.03508732
H        5.54150555      -0.02470853      29.05371221        0       1.00000000       0.14461532      -0.30226687       0.15686867      -0.12406211       0.05176300      -0.08046705
H        1.32178603       0.76503792      26.78060867        0       1.00000000       0.04774010       0.05013461      -0.01899147      -0.28766442      -0.13879774       0.11659203
H        5.54519094       3.27500689      26.78459472        0       1.00000000       0.09973199       0.03352085      -0.11449329       0.18422214       0.00199409       0.43526497
21
Lattice="5.612310241546866 0.0 0.0 0.0 4.860403243099165 0.0 0.0 0.0 44.58243212332868" Properties=species:S:1:pos:R:3:tags:I:1:masses:R:1:momenta:R:3:forces:R:3 KEmax=27.14459056223422 iter=38782 volume=1216.1236359717223 set_wall=T ns_energy=-13.72899031051889 last_walked_iter_clone=38612 energy=-13.862132345877555 stress="0.0208387908801052 0.0020335640789378314 0.0019385452374841964 0.0020335640789378314 0.018206441528600608 -0.003663615546169427 0.0019385452374841964 -0.003663615546169427 0.008424714524858889" pbc="T T F"
H        1.40307756       0.81006721      20.00000000        3       1.00000000       0.00000000       0.00000000       0.00000000       0.00000000       0.00000000       0.00000000
H        4.20923268       0.81006721      20.00000000        3       1.00000000       0.00000000       0.00000000       0.00000000       0.00000000       0.00000000       0.00000000
H        0.00000000       3.24026883      20.00000000        3       1.00000000       0.00000000       0.00000000       0.00000000       0.00000000       0.00000000       0.00000000
H        2.80615512       3.24026883      20.00000000        3       1.00000000       0.00000000       0.00000000       0.00000000       0.00000000       0.00000000       0.00000000
H        0.00000000       1.62013441      22.29121606        2       1.00000000       0.00000000       0.00000000       0.00000000       0.00000000       0.00000000       0.00000000
H        2.80615512       1.62013441      22.29121606        2       1.00000000       0.00000000       0.00000000       0.00000000       0.00000000       0.00000000       0.00000000
H        1.40307756       4.05033604      22.29121606        2       1.00000000       0.00000000       0.00000000       0.00000000       0.00000000       0.00000000       0.00000000
H        4.20923268       4.05033604      22.29121606        2       1.00000000       0.00000000       0.00000000       0.00000000       0.00000000       0.00000000       0.00000000
H        0.00000000       0.00000000      24.58243212        1       1.00000000       0.00000000       0.00000000       0.00000000       0.00000000       0.00000000       0.00000000
H        2.80615512       0.00000000      24.58243212        1       1.00000000       0.00000000       0.00000000       0.00000000       0.00000000       0.00000000       0.00000000
H        1.40307756       2.43020162      24.58243212        1       1.00000000       0.00000000       0.00000000       0.00000000       0.00000000       0.00000000       0.00000000
H        4.20923268       2.43020162      24.58243212        1       1.00000000       0.00000000       0.00000000       0.00000000       0.00000000       0.00000000       0.00000000
H        0.30970672       4.76528197      29.07012422        0       1.00000000       0.00746148       0.02276430       0.02551926       0.42383641       0.35143193       0.34886726
H        1.80866518       2.35290133      28.95794543        0       1.00000000      -0.09899161      -0.10821666      -0.10926721       0.13649925       0.12634702       0.09390496
H        1.63866208       0.75380230      26.89255549        0       1.00000000       0.15305901      -0.01090713       0.12487360      -0.38745308      -0.04093035      -0.11535306
H        0.08257984       3.26926582      26.74817683        0       1.00000000      -0.09643667      -0.01865021       0.11864088       0.02009765       0.02841817      -0.23139682
H        4.51556494       2.31143361      29.00530863        0       1.00000000       0.04092351       0.13006096       0.09896759      -0.23787992      -0.09919691      -0.19363175
H        3.25976620       3.21851979      31.20723297        0       1.00000000      -0.13207793      -0.02264400      -0.07616927      -0.05424445      -0.31296745      -0.03508732
H        4.31117755       0.76202171      26.68418686        0       1.00000000       0.15354553       0.10142433       0.05294725      -0.12406211       0.05176300      -0.08046705
H        3.16086426       4.77322931      28.98459332        0       1.00000000      -0.01025547       0.11103657      -0.05381103      -0.28766442      -0.13879774       0.11659203
H        3.03795827       3.26647700      26.66602659        0       1.00000000       0.06564687       0.06072713      -0.00272052       0.18422214       0.00199409       0.43526497
21
Lattice="5.612310241546866 0.0 0.0 0.0 4.860403243099165 0.0 0.0 0.0 44.58243212332868" Properties=species:S:1:pos:R:3:tags:I:1:masses:R:1:momenta:R:3:forces:R:3 KEmax=27.14459056223422 iter=38782 volume=1216.1236359717223 set_wall=T ns_energy=-13.740046703859047 last_walked_iter_clone=38689 energy=-13.862132345877555 stress="0.0208387908801052 0.0020335640789378314 0.0019385452374841964 0.0020335640789378314 0.018206441528600608 -0.003663615546169427 0.0019385452374841964 -0.003663615546169427 0.008424714524858889" pbc="T T F"
H        1.40307756       0.81006721      20.00000000        3       1.00000000       0.00000000       0.00000000       0.00000000       0.00000000       0.00000000       0.00000000
H        4.20923268       0.81006721      20.00000000        3       1.00000000       0.00000000       0.00000000       0.00000000       0.00000000       0.00000000       0.00000000
H        0.00000000       3.24026883      20.00000000        3       1.00000000       0.00000000       0.00000000       0.00000000       0.00000000       0.00000000       0.00000000
H        2.80615512       3.24026883      20.00000000        3       1.00000000       0.00000000       0.00000000       0.00000000       0.00000000       0.00000000       0.00000000
H        0.00000000       1.62013441      22.29121606        2       1.00000000       0.00000000       0.00000000       0.00000000       0.00000000       0.00000000       0.00000000
H        2.80615512       1.62013441      22.29121606        2       1.00000000       0.00000000       0.00000000       0.00000000       0.00000000       0.00000000       0.00000000
H        1.40307756       4.05033604      22.29121606        2       1.00000000       0.00000000       0.00000000       0.00000000       0.00000000       0.00000000       0.00000000
H        4.20923268       4.05033604      22.29121606        2       1.00000000       0.00000000       0.00000000       0.00000000       0.00000000       0.00000000       0.00000000
H        0.00000000       0.00000000      24.58243212        1       1.00000000       0.00000000       0.00000000       0.00000000       0.00000000       0.00000000       0.00000000
H        2.80615512       0.00000000      24.58243212        1       1.00000000       0.00000000       0.00000000       0.00000000       0.00000000       0.00000000       0.00000000
H        1.40307756       2.43020162      24.58243212        1       1.00000000       0.00000000       0.00000000       0.00000000       0.00000000       0.00000000       0.00000000
H        4.20923268       2.43020162      24.58243212        1       1.00000000       0.00000000       0.00000000       0.00000000       0.00000000       0.00000000       0.00000000
H       -0.04347724       0.06697419      28.95858441        0       1.00000000       0.04596424      -0.15960829       0.03849699       0.42383641       0.35143193       0.34886726
H        1.39600116       2.59666068      29.21849677        0       1.00000000      -0.02149419       0.00629285       0.10630041       0.13649925       0.12634702       0.09390496
H        1.33024874       0.96332382      26.78796791        0       1.00000000       0.01292691      -0.00972435       0.05675336      -0.38745308      -0.04093035      -0.11535306
H       -0.06311722       3.32684675      26.70602673        0       1.00000000      -0.21238713      -0.19323770      -0.03962529       0.02009765       0.02841817      -0.23139682
H        4.32892401       2.47160316      29.13782351        0       1.00000000      -0.08612028      -0.11343238       0.00382698      -0.23787992      -0.09919691      -0.19363175
H        4.51900003       4.19933791      31.38618304        0       1.00000000       0.07565133      -0.07006913       0.05093268      -0.05424445      -0.31296745      -0.03508732
H        4.13584837       0.87879922      26.86223041        0       1.00000000      -0.03602373       0.24637152       0.05759109      -0.12406211       0.05176300      -0.08046705
H        2.74090453       0.02389570      29.15291734        0       1.00000000      -0.15302515       0.00331567       0.09235156      -0.28766442      -0.13879774       0.11659203
H        2.85567387       3.24731055      26.85475294        0       1.00000000      -0.02462499       0.21182090      -0.14399146       0.18422214       0.00199409       0.43526497
21
Lattice="5.612310241546866 0.0 0.0 0.0 4.860403243099165 0.0 0.0 0.0 44.58243212332868" Properties=species:S:1:pos:R:3:tags:I:1:masses:R:1:momenta:R:3:forces:R:3 KEmax=27.14459056223422 iter=38782 volume=1216.1236359717223 set_wall=T ns_energy=-13.73718273194647 last_walked_iter_clone=38500 energy=-13.862132345877555 stress="0.0208387908801052 0.0020335640789378314 0.0019385452374841964 0.0020335640789378314 0.018206441528600608 -0.003663615546169427 0.0019385452374841964 -0.003663615546169427 0.008424714524858889" pbc="T T F"
H        1.40307756       0.81006721      20.00000000        3       1.00000000       0.00000000       0.00000000       0.00000000       0.00000000       0.00000000       0.00000000
H        4.20923268       0.81006721      20.00000000        3       1.00000000       0.00000000       0.00000000       0.00000000       0.00000000       0.00000000       0.00000000
H        0.00000000       3.24026883      20.00000000        3       1.00000000       0.00000000       0.00000000       0.00000000       0.00000000       0.00000000       0.00000000
H        2.80615512       3.24026883      20.00000000        3       1.00000000       0.00000000       0.00000000       0.00000000       0.00000000       0.00000000       0.00000000
H        0.00000000       1.62013441      22.29121606        2       1.00000000       0.00000000       0.00000000       0.00000000       0.00000000       0.00000000       0.00000000
H        2.80615512       1.62013441      22.29121606        2       1.00000000       0.00000000       0.00000000       0.00000000       0.00000000       0.00000000       0.00000000
H        1.40307756       4.05033604      22.29121606        2       1.00000000       0.00000000       0.00000000       0.00000000       0.00000000       0.00000000       0.00000000
H        4.20923268       4.05033604      22.29121606        2       1.00000000       0.00000000       0.00000000       0.00000000       0.00000000       0.00000000       0.00000000
H        0.00000000       0.00000000      24.58243212        1       1.00000000       0.00000000       0.00000000       0.00000000       0.00000000       0.00000000       0.00000000
H        2.80615512       0.00000000      24.58243212        1       1.00000000       0.00000000       0.00000000       0.00000000       0.00000000       0.00000000       0.00000000
H        1.40307756       2.43020162      24.58243212        1       1.00000000       0.00000000       0.00000000       0.00000000       0.00000000       0.00000000       0.00000000
H        4.20923268       2.43020162      24.58243212        1       1.00000000       0.00000000       0.00000000       0.00000000       0.00000000       0.00000000       0.00000000
H        1.25312091       2.44558435      29.18641517        0       1.00000000       0.01484112       0.07154952      -0.11447722       0.42383641       0.35143193       0.34886726
H        2.66801188       5.08518053      28.92502670        0       1.00000000       0.21338808       0.13405864       0.11623437       0.13649925       0.12634702       0.09390496
H        2.77815015       1.76090934      26.76720719        0       1.00000000      -0.13471102      -0.09503901       0.01713829      -0.38745308      -0.04093035      -0.11535306
H        4.06646302       2.54321146      28.96760279        0       1.00000000      -0.21602230       0.05518732      -0.11719255       0.02009765       0.02841817      -0.23139682
H        1.33725638       4.08970678      26.79963891        0       1.00000000      -0.20110364      -0.00876151      -0.07419039      -0.23787992      -0.09919691      -0.19363175
H        5.72195203       1.63045165      26.80881342        0       1.00000000      -0.03904525       0.04956045       0.24880541      -0.05424445      -0.31296745      -0.03508732
H        4.12736354       4.18000501      31.14415046        0       1.00000000      -0.01850662       0.13273276       0.04760049      -0.12406211       0.05176300      -0.08046705
H        4.26486175       4.04819198      26.75728559        0       1.00000000      -0.05671517      -0.02743302      -0.09346164      -0.28766442      -0.13879774       0.11659203
H        5.49157253       0.05010264      28.92579052        0       1.00000000       0.20541645      -0.04417103       0.00364216       0.18422214       0.00199409       0.43526497
21
Lattice="5.612310241546866 0.0 0.0 0.0 4.860403243099165 0.0 0.0 0.0 44.58243212332868" Properties=species:S:1:pos:R:3:tags:I:1:masses:R:1:momenta:R:3:forces:R:3 KEmax=27.14459056223422 iter=38782 volume=1216.1236359717223 set_wall=T ns_energy=-13.726384685757608 last_walked_iter_clone=38495 energy=-13.862132345877555 stress="0.0208387908801052 0.0020335640789378314 0.0019385452374841964 0.0020335640789378314 0.018206441528600608 -0.003663615546169427 0.0019385452374841964 -0.003663615546169427 0.008424714524858889" pbc="T T F"
H        1.40307756       0.81006721      20.00000000        3       1.00000000       0.00000000       0.00000000       0.00000000       0.00000000       0.00000000       0.00000000
H        4.20923268       0.81006721      20.00000000        3       1.00000000       0.00000000       0.00000000       0.00000000       0.00000000       0.00000000       0.00000000
H        0.00000000       3.24026883      20.00000000        3       1.00000000       0.00000000       0.00000000       0.00000000       0.00000000       0.00000000       0.00000000
H        2.80615512       3.24026883      20.00000000        3       1.00000000       0.00000000       0.00000000       0.00000000       0.00000000       0.00000000       0.00000000
H        0.00000000       1.62013441      22.29121606        2       1.00000000       0.00000000       0.00000000       0.00000000       0.00000000       0.00000000       0.00000000
H        2.80615512       1.62013441      22.29121606        2       1.00000000       0.00000000       0.00000000       0.00000000       0.00000000       0.00000000       0.00000000
H        1.40307756       4.05033604      22.29121606        2       1.00000000       0.00000000       0.00000000       0.00000000       0.00000000       0.00000000       0.00000000
H        4.20923268       4.05033604      22.29121606        2       1.00000000       0.00000000       0.00000000       0.00000000       0.00000000       0.00000000       0.00000000
H        0.00000000       0.00000000      24.58243212        1       1.00000000       0.00000000       0.00000000       0.00000000       0.00000000       0.00000000       0.00000000
H        2.80615512       0.00000000      24.58243212        1       1.00000000       0.00000000       0.00000000       0.00000000       0.00000000       0.00000000       0.00000000
H        1.40307756       2.43020162      24.58243212        1       1.00000000       0.00000000       0.00000000       0.00000000       0.00000000       0.00000000       0.00000000
H        4.20923268       2.43020162      24.58243212        1       1.00000000       0.00000000       0.00000000       0.00000000       0.00000000       0.00000000       0.00000000
H        2.80066500       3.27736293      29.13913487        0       1.00000000       0.08717677       0.16442521       0.04402646       0.42383641       0.35143193       0.34886726
H        4.27479243       0.75757752      28.94172485        0       1.00000000      -0.13982599       0.18126237       0.11572534       0.13649925       0.12634702       0.09390496
H        1.50677388       3.90259564      26.77582607        0       1.00000000       0.17997954       0.05234359      -0.01187615      -0.38745308      -0.04093035      -0.11535306
H       -0.07684104       3.32724446      29.01358211        0       1.00000000      -0.01565182      -0.02080217      -0.09069629       0.02009765       0.02841817      -0.23139682
H        0.02485234       1.64712908      26.75713103        0       1.00000000       0.13033054      -0.02700732      -0.04462611      -0.23787992      -0.09919691      -0.19363175
H        4.27226366       4.08320573      26.76680770        0       1.00000000       0.12401220       0.06719547       0.20788896      -0.05424445      -0.31296745      -0.03508732
H        4.28206021       2.19341208      31.27302828        0       1.00000000      -0.06248778       0.06609402       0.03365463      -0.12406211       0.05176300      -0.08046705
H        2.83275013       1.51229418      26.81241038        0       1.00000000      -0.14933985      -0.09667070       0.30790278      -0.28766442      -0.13879774       0.11659203
H        1.34056563       0.85463970      29.03743222        0       1.00000000       0.07947485       0.25935316       0.04293730       0.18422214       0.00199409       0.43526497
21
Lattice="5.612310241546866 0.0 0.0 0.0 4.860403243099165 0.0 0.0 0.0 44.58243212332868" Properties=species:S:1:pos:R:3:tags:I:1:masses:R:1:momenta:R:3:forces:R:3 KEmax=27.14459056223422 iter=38782 volume=1216.1236359717223 set_wall=T ns_energy=-13.728161588012727 last_walked_iter_clone=38769 energy=-13.862132345877555 stress="0.0208387908801052 0.0020335640789378314 0.0019385452374841964 0.0020335640789378314 0.018206441528600608 -0.003663615546169427 0.0019385452374841964 -0.003663615546169427 0.008424714524858889" pbc="T T F"
H        1.40307756       0.81006721      20.00000000        3       1.00000000       0.00000000       0.00000000       0.00000000       0.00000000       0.00000000       0.00000000
H        4.20923268       0.81006721      20.00000000        3       1.00000000       0.00000000       0.00000000       0.00000000       0.00000000       0.00000000       0.00000000
H        0.00000000       3.24026883      20.00000000        3       1.00000000       0.00000000       0.00000000       0.00000000       0.00000000       0.00000000       0.00000000
H        2.80615512       3.24026883      20.00000000        3       1.00000000       0.00000000       0.00000000       0.00000000       0.00000000       0.00000000       0.00000000
H        0.00000000       1.62013441      22.29121606        2       1.00000000       0.00000000       0.00000000       0.00000000       0.00000000       0.00000000       0.00000000
H        2.80615512       1.62013441      22.29121606        2       1.00000000       0.00000000       0.00000000       0.00000000       0.00000000       0.00000000       0.00000000
H        1.40307756       4.05033604      22.29121606        2       1.00000000       0.00000000       0.00000000       0.00000000       0.00000000       0.00000000       0.00000000
H        4.20923268       4.05033604      22.29121606        2       1.00000000       0.00000000       0.00000000       0.00000000       0.00000000       0.00000000       0.00000000
H        0.00000000       0.00000000      24.58243212        1       1.00000000       0.00000000       0.00000000       0.00000000       0.00000000       0.00000000       0.00000000
H        2.80615512       0.00000000      24.58243212        1       1.00000000       0.00000000       0.00000000       0.00000000       0.00000000       0.00000000       0.00000000
H        1.40307756       2.43020162      24.58243212        1       1.00000000       0.00000000       0.00000000       0.00000000       0.00000000       0.00000000       0.00000000
H        4.20923268       2.43020162      24.58243212        1       1.00000000       0.00000000       0.00000000       0.00000000       0.00000000       0.00000000       0.00000000
H        4.47475555       2.60835008      29.03171028        0       1.00000000      -0.08126546      -0.03998482      -0.05361360       0.42383641       0.35143193       0.34886726
H        2.85183021       0.06409582      28.89654429        0       1.00000000       0.00523065       0.04593151       0.06009316       0.13649925       0.12634702       0.09390496
H        1.57877082       2.45901150      28.92327813        0       1.00000000       0.12304349       0.11758208       0.10673697      -0.38745308      -0.04093035      -0.11535306
H        0.41474566       2.91170224      31.22949123        0       1.00000000       0.09954241       0.25195888      -0.13429440       0.02009765       0.02841817      -0.23139682
H        2.75528490       3.29629887      26.71928662        0       1.00000000      -0.13818198       0.19626116       0.05515420      -0.23787992      -0.09919691      -0.19363175
H        4.23962972       0.95952453      26.75970861        0       1.00000000      -0.02812132       0.07722123       0.05990498      -0.05424445      -0.31296745      -0.03508732
H        0.18360760       5.01759371      29.21345805        0       1.00000000      -0.17559096       0.00854462      -0.15371617      -0.12406211       0.05176300      -0.08046705
H        1.34229108       0.77366877      26.76279872        0       1.00000000      -0.00337883      -0.08771450      -0.05727323      -0.28766442      -0.13879774       0.11659203
H        0.01339422       3.34012033      26.79372903        0       1.00000000      -0.02224340      -0.09352317       0.08529485       0.18422214       0.00199409       0.43526497
21
Lattice="5.612310241546866 0.0 0.0 0.0 4.860403243099165 0.0 0.0 0.0 44.58243212332868" Properties=species:S:1:pos:R:3:tags:I:1:masses:R:1:momenta:R:3:forces:R:3 KEmax=27.14459056223422 iter=38782 volume=1216.1236359717223 set_wall=T ns_energy=-13.749044216770415 last_walked_iter_clone=38765 energy=-13.862132345877555 stress="0.0208387908801052 0.0020335640789378314 0.0019385452374841964 0.0020335640789378314 0.018206441528600608 -0.003663615546169427 0.0019385452374841964 -0.003663615546169427 0.008424714524858889" pbc="T T F"
H        1.40307756       0.81006721      20.00000000        3       1.00000000       0.00000000       0.00000000       0.00000000       0.00000000       0.00000000       0.00000000
H        4.20923268       0.81006721      20.00000000        3       1.00000000       0.00000000       0.00000000       0.00000000       0.00000000       0.00000000       0.00000000
H        0.00000000       3.24026883      20.00000000        3       1.00000000       0.00000000       0.00000000       0.00000000       0.00000000       0.00000000       0.00000000
H        2.80615512       3.24026883      20.00000000        3       1.00000000       0.00000000       0.00000000       0.00000000       0.00000000       0.00000000       0.00000000
H        0.00000000       1.62013441      22.29121606        2       1.00000000       0.00000000       0.00000000       0.00000000       0.00000000       0.00000000       0.00000000
H        2.80615512       1.62013441      22.29121606        2       1.00000000       0.00000000       0.00000000       0.00000000       0.00000000       0.00000000       0.00000000
H        1.40307756       4.05033604      22.29121606        2       1.00000000       0.00000000       0.00000000       0.00000000       0.00000000       0.00000000       0.00000000
H        4.20923268       4.05033604      22.29121606        2       1.00000000       0.00000000       0.00000000       0.00000000       0.00000000       0.00000000       0.00000000
H        0.00000000       0.00000000      24.58243212        1       1.00000000       0.00000000       0.00000000       0.00000000       0.00000000       0.00000000       0.00000000
H        2.80615512       0.00000000      24.58243212        1       1.00000000       0.00000000       0.00000000       0.00000000       0.00000000       0.00000000       0.00000000
H        1.40307756       2.43020162      24.58243212        1       1.00000000       0.00000000       0.00000000       0.00000000       0.00000000       0.00000000       0.00000000
H        4.20923268       2.43020162      24.58243212        1       1.00000000       0.00000000       0.00000000       0.00000000       0.00000000       0.00000000       0.00000000
H        5.72045947      -0.07575903      29.06062874        0       1.00000000       0.14565952      -0.00320542       0.08875999       0.42383641       0.35143193       0.34886726
H        1.44687554       2.45533748      28.95264940        0       1.00000000       0.07514885      -0.13896002      -0.04345262       0.13649925       0.12634702       0.09390496
H        1.46209969       0.79237408      26.78156686        0       1.00000000      -0.04079181       0.10419812      -0.10476357      -0.38745308      -0.04093035      -0.11535306
H       -0.08396936       3.26373856      26.73904721        0       1.00000000       0.06834030      -0.08452348       0.10820647       0.02009765       0.02841817      -0.23139682
H        4.35208219       2.41527810      29.08522803        0       1.00000000       0.04944618       0.12828979      -0.10621733      -0.23787992      -0.09919691      -0.19363175
H        4.16012689       4.49893886      31.35064764        0       1.00000000       0.01502386      -0.16245601      -0.10990090      -0.05424445      -0.31296745      -0.03508732