21
Lattice="5.612310241546866 0.0 0.0 0.0 4.860403243099165 0.0 0.0 0.0 44.58243212332868" Properties=species:S:1:pos:R:3:tags:I:1:masses:R:1:momenta:R:3 KEmax=27.14459056223422 iter=99 volume=1216.1236359717223 set_wall=T ns_energy=18600.282421849126 ns_P=0.0 config_n_global=99 ns_KE=8.373846444546327 pbc="T T F"
H        1.40307756       0.81006721      20.00000000        3       1.00000000       0.00000000       0.00000000       0.00000000
H        4.20923268       0.81006721      20.00000000        3       1.00000000       0.00000000       0.00000000       0.00000000
H        0.00000000       3.24026883      20.00000000        3       1.00000000       0.00000000       0.00000000       0.00000000
H        2.80615512       3.24026883      20.00000000        3       1.00000000       0.00000000       0.00000000       0.00000000
H        0.00000000       1.62013441      22.29121606        2       1.00000000       0.00000000       0.00000000       0.00000000
H        2.80615512       1.62013441      22.29121606        2       1.00000000       0.00000000       0.00000000       0.00000000
H        1.40307756       4.05033604      22.29121606        2       1.00000000       0.00000000       0.00000000       0.00000000
H        4.20923268       4.05033604      22.29121606        2       1.00000000       0.00000000       0.00000000       0.00000000
H        0.00000000       0.00000000      24.58243212        1       1.00000000       0.00000000       0.00000000       0.00000000
H        2.80615512       0.00000000      24.58243212        1       1.00000000       0.00000000       0.00000000       0.00000000
H        1.40307756       2.43020162      24.58243212        1       1.00000000       0.00000000       0.00000000       0.00000000
H        4.20923268       2.43020162      24.58243212        1       1.00000000       0.00000000       0.00000000       0.00000000
H        5.31817959       2.40707448      33.02155571        0       1.00000000      -0.26089542      -0.92989553       1.28867627
H        1.25681708       3.82252080      35.93466453        0       1.00000000      -0.46473032       1.26334027       0.30303945
H        1.20255477       0.12291160      35.61502848        0       1.00000000       0.35545844       0.49960266      -1.04211811
H        0.70820218       4.70706962      41.24193429        0       1.00000000      -0.28320690      -1.21333479       0.75439939
H        5.43273184       3.02791730      35.65284301        0       1.00000000       0.12577743       0.42597345       0.28682355
H        2.89987545       2.01075280      32.03477479        0       1.00000000       1.47569890       0.45731904       0.41980167
H        2.11997439       2.49035043      41.91234740        0       1.00000000       0.10064719      -0.52323080      -0.77716704
H        4.17940030       1.96086010      34.34219246        0       1.00000000       0.07348108       0.16431409       0.88767462
H        0.25311243       0.53016776      35.63396914        0       1.00000000       0.73284200       1.71555448       0.79742588
21
Lattice="5.612310241546866 0.0 0.0 0.0 4.860403243099165 0.0 0.0 0.0 44.58243212332868" Properties=species:S:1:pos:R:3:tags:I:1:masses:R:1:momenta:R:3 KEmax=27.14459056223422 iter=199 volume=1216.1236359717223 set_wall=T ns_energy=1284.2879269626453 last_walked_iter_clone=84 ns_P=0.0 config_n_global=199 ns_KE=23.222958252003004 pbc="T T F"
H        1.40307756       0.81006721      20.00000000        3       1.00000000       0.00000000       0.00000000       0.00000000
H        4.20923268       0.81006721      20.00000000        3       1.00000000       0.00000000       0.00000000       0.00000000
H        0.00000000       3.24026883      20.00000000        3       1.00000000       0.00000000       0.00000000       0.00000000
H        2.80615512       3.24026883      20.00000000        3       1.00000000       0.00000000       0.00000000       0.00000000
H        0.00000000       1.62013441      22.29121606        2       1.00000000       0.00000000       0.00000000       0.00000000
H        2.80615512       1.62013441      22.29121606        2       1.00000000       0.00000000       0.00000000       0.00000000
H        1.40307756       4.05033604      22.29121606        2       1.00000000       0.00000000       0.00000000       0.00000000
H        4.20923268       4.05033604      22.29121606        2       1.00000000       0.00000000       0.00000000       0.00000000
H        0.00000000       0.00000000      24.58243212        1       1.00000000       0.00000000       0.00000000       0.00000000
H        2.80615512       0.00000000      24.58243212        1       1.00000000       0.00000000       0.00000000       0.00000000
H        1.40307756       2.43020162      24.58243212        1       1.00000000       0.00000000       0.00000000       0.00000000
H        4.20923268       2.43020162      24.58243212        1       1.00000000       0.00000000       0.00000000       0.00000000
H        0.11334107       1.45795680      34.16910370        0       1.00000000       0.21056480      -0.88184880       0.40270664
H        1.35411235       1.35597367      38.77317355        0       1.00000000       3.88509731       1.36254943      -0.54742741
H        4.84887224       1.25511762      29.27128097        0       1.00000000       0.30183190      -0.96333073      -1.56485532
H        2.32208788       4.09092064      31.80738050        0       1.00000000      -2.05994221      -1.28803998       0.01186807
H        5.14517877       3.19997856      36.54615399        0       1.00000000       0.93411529      -1.83552930       1.60754382
H        4.35362871       1.64511992      40.57244222        0       1.00000000       0.20324808      -0.35837860       0.07194380
H        0.90353499       1.88080209      31.29401063        0       1.00000000      -0.17554231      -0.04212026      -1.39328219
H        4.48729121       0.37935345      40.47630546        0       1.00000000      -1.41711002      -0.06724210       0.94329590
H        3.31948323       0.37468930      39.08730616        0       1.00000000      -1.06654420       1.47093787       1.91382700
21
Lattice="5.612310241546866 0.0 0.0 0.0 4.860403243099165 0.0 0.0 0.0 44.58243212332868" Properties=species:S:1:pos:R:3:tags:I:1:masses:R:1:momenta:R:3 KEmax=27.14459056223422 iter=299 volume=1216.1236359717223 set_wall=T ns_energy=191.2644784058886 ns_P=0.0 config_n_global=299 ns_KE=12.475535131696732 pbc="T T F"
H        1.40307756       0.81006721      20.00000000        3       1.00000000       0.00000000       0.00000000       0.00000000
H        4.20923268       0.81006721      20.00000000        3       1.00000000       0.00000000       0.00000000       0.00000000
H        0.00000000       3.24026883      20.00000000        3       1.00000000       0.00000000       0.00000000       0.00000000
H        2.80615512       3.24026883      20.00000000        3       1.00000000       0.00000000       0.00000000       0.00000000
H        0.00000000       1.62013441      22.29121606        2       1.00000000       0.00000000       0.00000000       0.00000000
H        2.80615512       1.62013441      22.29121606        2       1.00000000       0.00000000       0.00000000       0.00000000
H        1.40307756       4.05033604      22.29121606        2       1.00000000       0.00000000       0.00000000       0.00000000
H        4.20923268       4.05033604      22.29121606        2       1.00000000       0.00000000       0.00000000       0.00000000
H        0.00000000       0.00000000      24.58243212        1       1.00000000       0.00000000       0.00000000       0.00000000
H        2.80615512       0.00000000      24.58243212        1       1.00000000       0.00000000       0.00000000       0.00000000
H        1.40307756       2.43020162      24.58243212        1       1.00000000       0.00000000       0.00000000       0.00000000
H        4.20923268       2.43020162      24.58243212        1       1.00000000       0.00000000       0.00000000       0.00000000
H        2.97327068       0.96779660      35.13586784        0       1.00000000      -0.90272673      -0.55314455      -0.02418984
H        4.71532359       1.49319597      31.20008990        0       1.00000000      -0.13794520      -0.87460795      -0.07206567
H        4.24260601       1.62804221      29.45324851        0       1.00000000       1.18446994      -0.14880531       0.21044000
H        4.49357853       1.55112229      33.93785733        0       1.00000000       1.11250679       0.43012826       0.76302742
H        5.03451189       3.38002782      31.16632354        0       1.00000000       0.00407645      -0.16750022      -1.12391817
H        3.69328440       1.88156047      38.52689219        0       1.00000000       0.66584851       0.09896253      -0.98380373
H        1.08034684       0.05406078      42.25181037        0       1.00000000      -0.93564634      -2.92267183       0.96610171
H        3.78660774       3.68541451      30.35882756        0       1.00000000      -1.29328845       1.22844683      -0.35787448
H        4.35114770       2.28036698      27.65046930        0       1.00000000      -1.73343667       0.01355799      -0.43397311
21
Lattice="5.612310241546866 0.0 0.0 0.0 4.860403243099165 0.0 0.0 0.0 44.58243212332868" Properties=species:S:1:pos:R:3:tags:I:1:masses:R:1:momenta:R:3 KEmax=27.14459056223422 iter=399 volume=1216.1236359717223 set_wall=T ns_energy=72.41749052578189 last_walked_iter_clone=20 ns_P=0.0 config_n_global=399 ns_KE=26.332492773877146 pbc="T T F"
H        1.40307756       0.81006721      20.00000000        3       1.00000000       0.00000000       0.00000000       0.00000000
H        4.20923268       0.81006721      20.00000000        3       1.00000000       0.00000000       0.00000000       0.00000000
H        0.00000000       3.24026883      20.00000000        3       1.00000000       0.00000000       0.00000000       0.00000000
H        2.80615512       3.24026883      20.00000000        3       1.00000000       0.00000000       0.00000000       0.00000000
H        0.00000000       1.62013441      22.29121606        2       1.00000000       0.00000000       0.00000000       0.00000000
H        2.80615512       1.62013441      22.29121606        2       1.00000000       0.00000000       0.00000000       0.00000000
H        1.40307756       4.05033604      22.29121606        2       1.00000000       0.00000000       0.00000000       0.00000000
H        4.20923268       4.05033604      22.29121606        2       1.00000000       0.00000000       0.00000000       0.00000000
H        0.00000000       0.00000000      24.58243212        1       1.00000000       0.00000000       0.00000000       0.00000000
H        2.80615512       0.00000000      24.58243212        1       1.00000000       0.00000000       0.00000000       0.00000000
H        1.40307756       2.43020162      24.58243212        1       1.00000000       0.00000000       0.00000000       0.00000000
H        4.20923268       2.43020162      24.58243212        1       1.00000000       0.00000000       0.00000000       0.00000000
H        3.36802042       3.70062016      38.92923686        0       1.00000000      -1.30136484       0.38032840      -1.00517146
H        3.49473141       0.13938100      34.74926080        0       1.00000000      -0.22467319      -1.52070400      -0.63368126
H        1.73603475       1.21222379      41.83367558        0       1.00000000       3.62186325       0.61953575      -1.38074949
H        2.78163753       0.69237940      39.22496955        0       1.00000000      -2.05551825      -0.64567915       1.46622827
H        2.70833499       0.78697615      36.11598785        0       1.00000000      -1.11281244       0.23992901       3.21014714
H        3.95663349       0.12377403      28.25096274        0       1.00000000      -0.37722180       0.51981368       0.44739802
H        0.94572228       0.85138720      40.09843462        0       1.00000000       1.26860623      -1.14870586       1.02927473
H        5.27018349       4.58619097      37.34337494        0       1.00000000      -0.92301720       1.46808788      -0.69925072
H        2.68214655       2.40475505      34.92537100        0       1.00000000       0.77734610       1.52879965       1.48733425
21
Lattice="5.612310241546866 0.0 0.0 0.0 4.860403243099165 0.0 0.0 0.0 44.58243212332868" Properties=species:S:1:pos:R:3:tags:I:1:masses:R:1:momenta:R:3 KEmax=27.14459056223422 iter=499 volume=1216.1236359717223 set_wall=T ns_energy=29.760220237845385 last_walked_iter_clone=160 ns_P=0.0 config_n_global=499 ns_KE=24.72414299982476 pbc="T T F"
H        1.40307756       0.81006721      20.00000000        3       1.00000000       0.00000000       0.00000000       0.00000000
H        4.20923268       0.81006721      20.00000000        3       1.00000000       0.00000000       0.00000000       0.00000000
H        0.00000000       3.24026883      20.00000000        3       1.00000000       0.00000000       0.00000000       0.00000000
H        2.80615512       3.24026883      20.00000000        3       1.00000000       0.00000000       0.00000000       0.00000000
H        0.00000000       1.62013441      22.29121606        2       1.00000000       0.00000000       0.00000000       0.00000000
H        2.80615512       1.62013441      22.29121606        2       1.00000000       0.00000000       0.00000000       0.00000000
H        1.40307756       4.05033604      22.29121606        2       1.00000000       0.00000000       0.00000000       0.00000000
H        4.20923268       4.05033604      22.29121606        2       1.00000000       0.00000000       0.00000000       0.00000000
H        0.00000000       0.00000000      24.58243212        1       1.00000000       0.00000000       0.00000000       0.00000000
H        2.80615512       0.00000000      24.58243212        1       1.00000000       0.00000000       0.00000000       0.00000000
H        1.40307756       2.43020162      24.58243212        1       1.00000000       0.00000000       0.00000000       0.00000000
H        4.20923268       2.43020162      24.58243212        1       1.00000000       0.00000000       0.00000000       0.00000000
H        4.61133117       0.92304022      33.51342292        0       1.00000000      -0.47153854       1.69397661      -0.91480786
H        4.65251110       2.32885875      36.71846237        0       1.00000000       2.50985344      -1.87428367       1.14346662
H        4.93325460       1.16029471      42.11438326        0       1.00000000       0.40841612      -0.51832369      -1.91728806
H        5.35313009       2.83433425      30.27399914        0       1.00000000       0.97370129       0.18223322      -1.53156783
H        1.06021363       1.75268413      41.75969752        0       1.00000000       0.40224140       1.11501601       1.10121714
H        0.75609324       2.93278079      37.74885778        0       1.00000000       1.44506051       0.18544875       0.15840429
H        5.29859691       1.58275440      39.19544839        0       1.00000000      -2.73205367      -0.33269032       0.55706581
H        1.90831151       3.35797009      35.36855328        0       1.00000000       0.57833247      -1.32765573      -2.02293269
H        4.37683518       4.59825144      37.16201889        0       1.00000000      -1.14375573       1.04580202       2.39152892
21
Lattice="5.612310241546866 0.0 0.0 0.0 4.860403243099165 0.0 0.0 0.0 44.58243212332868" Properties=species:S:1:pos:R:3:tags:I:1:masses:R:1:momenta:R:3 KEmax=27.14459056223422 iter=599 volume=1216.1236359717223 set_wall=T ns_energy=23.30445525552467 ns_P=0.0 config_n_global=599 ns_KE=10.947331929419777 pbc="T T F"
H        1.40307756       0.81006721      20.00000000        3       1.00000000       0.00000000       0.00000000       0.00000000
H        4.20923268       0.81006721      20.00000000        3       1.00000000       0.00000000       0.00000000       0.00000000
H        0.00000000       3.24026883      20.00000000        3       1.00000000       0.00000000       0.00000000       0.00000000
H        2.80615512       3.24026883      20.00000000        3       1.00000000       0.00000000       0.00000000       0.00000000
H        0.00000000       1.62013441      22.29121606        2       1.00000000       0.00000000       0.00000000       0.00000000
H        2.80615512       1.62013441      22.29121606        2       1.00000000       0.00000000       0.00000000       0.00000000
H        1.40307756       4.05033604      22.29121606        2       1.00000000       0.00000000       0.00000000       0.00000000
H        4.20923268       4.05033604      22.29121606        2       1.00000000       0.00000000       0.00000000       0.00000000
H        0.00000000       0.00000000      24.58243212        1       1.00000000       0.00000000       0.00000000       0.00000000
H        2.80615512       0.00000000      24.58243212        1       1.00000000       0.00000000       0.00000000       0.00000000
H        1.40307756       2.43020162      24.58243212        1       1.00000000       0.00000000       0.00000000       0.00000000
H        4.20923268       2.43020162      24.58243212        1       1.00000000       0.00000000       0.00000000       0.00000000
H        4.21463842       2.09181190      33.36668500        0       1.00000000       0.49039228       0.50229144      -0.62650744
H        3.91665123       1.10115186      37.65887147        0       1.00000000       0.15564518       0.94301599      -0.66129928
H        3.17068337       4.03080519      30.48394718        0       1.00000000      -0.68905205      -2.67823225      -1.05016727
H        3.13375981       4.25664013      33.78684853        0       1.00000000       0.30952314       0.70932233       0.33479301
H        3.10411596       3.62208547      36.85446269        0       1.00000000      -0.67612498      -1.40390155      -0.59824823
H        1.01192564       0.11280998      40.59646403        0       1.00000000      -0.26454527      -0.28062434       0.79454113
H        4.28611386       3.61317611      38.18095000        0       1.00000000      -0.90627704      -0.69269552      -0.99725335
H        4.52100691       1.51458093      29.17643979        0       1.00000000      -1.31251637       0.65731845      -0.69711524
H        2.49490700       4.26079489      26.89589655        0       1.00000000      -1.02042132      -0.58759281      -0.55497069
21
Lattice="5.612310241546866 0.0 0.0 0.0 4.860403243099165 0.0 0.0 0.0 44.58243212332868" Properties=species:S:1:pos:R:3:tags:I:1:masses:R:1:momenta:R:3 KEmax=27.14459056223422 iter=699 volume=1216.1236359717223 set_wall=T ns_energy=19.639644728705562 last_walked_iter_clone=402 ns_P=0.0 config_n_global=699 ns_KE=25.93944679354949 pbc="T T F"
H        1.40307756       0.81006721      20.00000000        3       1.00000000       0.00000000       0.00000000       0.00000000
H        4.20923268       0.81006721      20.00000000        3       1.00000000       0.00000000       0.00000000       0.00000000
H        0.00000000       3.24026883      20.00000000        3       1.00000000       0.00000000       0.00000000       0.00000000
H        2.80615512       3.24026883      20.00000000        3       1.00000000       0.00000000       0.00000000       0.00000000
H        0.00000000       1.62013441      22.29121606        2       1.00000000       0.00000000       0.00000000       0.00000000
H        2.80615512       1.62013441      22.29121606        2       1.00000000       0.00000000       0.00000000       0.00000000
H        1.40307756       4.05033604      22.29121606        2       1.00000000       0.00000000       0.00000000       0.00000000
H        4.20923268       4.05033604      22.29121606        2       1.00000000       0.00000000       0.00000000       0.00000000
H        0.00000000       0.00000000      24.58243212        1       1.00000000       0.00000000       0.00000000       0.00000000
H        2.80615512       0.00000000      24.58243212        1       1.00000000       0.00000000       0.00000000       0.00000000
H        1.40307756       2.43020162      24.58243212        1       1.00000000       0.00000000       0.00000000       0.00000000
H        4.20923268       2.43020162      24.58243212        1       1.00000000       0.00000000       0.00000000       0.00000000
H        4.68735803       0.86840703      33.38214367        0       1.00000000       0.29235134       0.91458268      -1.34371461
H        4.53990451       2.38407132      36.81100462        0       1.00000000      -2.79567293       0.56147377       0.31704705
H        4.88754963       1.18465642      42.06524217        0       1.00000000      -1.05413086       0.68857065       1.30702441
H        5.35474859       2.96674037      30.35827213        0       1.00000000       1.13605838      -0.00139416       0.70787663
H        1.33339459       1.87540058      41.74442853        0       1.00000000       2.48634586      -0.55274781      -0.30722442
H        0.93651262       2.85227368      37.91018450        0       1.00000000       2.95646367      -1.01246943       2.26686260
H        5.27208194       1.54477309      39.22922261        0       1.00000000      -1.70730827      -0.31860823       1.76515612
H        1.94599420       3.31257346      35.57077078        0       1.00000000      -0.38702564      -1.26726202       1.57103525
H        4.28176457       4.62441045      37.00094223        0       1.00000000      -1.34501000       0.44292691      -1.40957150
21
Lattice="5.612310241546866 0.0 0.0 0.0 4.860403243099165 0.0 0.0 0.0 44.58243212332868" Properties=species:S:1:pos:R:3:tags:I:1:masses:R:1:momenta:R:3 KEmax=27.14459056223422 iter=799 volume=1216.1236359717223 set_wall=T ns_energy=17.97752089306976 last_walked_iter_clone=423 ns_P=0.0 config_n_global=799 ns_KE=25.79238398549335 pbc="T T F"
H        1.40307756       0.81006721      20.00000000        3       1.00000000       0.00000000       0.00000000       0.00000000
H        4.20923268       0.81006721      20.00000000        3       1.00000000       0.00000000       0.00000000       0.00000000
H        0.00000000       3.24026883      20.00000000        3       1.00000000       0.00000000       0.00000000       0.00000000
H        2.80615512       3.24026883      20.00000000        3       1.00000000       0.00000000       0.00000000       0.00000000
H        0.00000000       1.62013441      22.29121606        2       1.00000000       0.00000000       0.00000000       0.00000000
H        2.80615512       1.62013441      22.29121606        2       1.00000000       0.00000000       0.00000000       0.00000000
H        1.40307756       4.05033604      22.29121606        2       1.00000000       0.00000000       0.00000000       0.00000000
H        4.20923268       4.05033604      22.29121606        2       1.00000000       0.00000000       0.00000000       0.00000000
H        0.00000000       0.00000000      24.58243212        1       1.00000000       0.00000000       0.00000000       0.00000000
H        2.80615512       0.00000000      24.58243212        1       1.00000000       0.00000000       0.00000000       0.00000000
H        1.40307756       2.43020162      24.58243212        1       1.00000000       0.00000000       0.00000000       0.00000000
H        4.20923268       2.43020162      24.58243212        1       1.00000000       0.00000000       0.00000000       0.00000000
H        0.91970026       0.20546068      30.49790794        0       1.00000000      -1.68457288      -0.68143221       1.13605796
H        1.58330795       1.08512207      42.00154638        0       1.00000000       0.47384305      -0.04764720      -1.22820145
H        3.34126673       2.63678840      27.47030234        0       1.00000000      -0.75360180       0.05441469      -0.75805595
H        1.73781668       1.60440646      38.87619822        0       1.00000000      -2.20218299      -0.02595092       1.22974640
H        4.60273709       4.44309676      36.44911201        0       1.00000000       0.56949374       1.44476520      -2.21856981
H        0.45576375       3.18923001      27.62315134        0       1.00000000       2.88221924      -0.50106790       0.87683489
H        3.18145939       0.26150225      26.72857125        0       1.00000000       1.17870453      -2.84693219      -0.93783818
H        4.23456663       0.72190406      30.33236256        0       1.00000000      -1.68031515       0.99029136       1.02225183
H        0.15400301       4.63045408      32.68729766        0       1.00000000      -1.29902597       0.36860469      -2.01033457
21
Lattice="5.612310241546866 0.0 0.0 0.0 4.860403243099165 0.0 0.0 0.0 44.58243212332868" Properties=species:S:1:pos:R:3:tags:I:1:masses:R:1:momenta:R:3 KEmax=27.14459056223422 iter=899 volume=1216.1236359717223 set_wall=T ns_energy=17.22482660088419 last_walked_iter_clone=714 ns_P=0.0 config_n_global=899 ns_KE=24.92530781905855 pbc="T T F"
H        1.40307756       0.81006721      20.00000000        3       1.00000000       0.00000000       0.00000000       0.00000000
H        4.20923268       0.81006721      20.00000000        3       1.00000000       0.00000000       0.00000000       0.00000000
H        0.00000000       3.24026883      20.00000000        3       1.00000000       0.00000000       0.00000000       0.00000000
H        2.80615512       3.24026883      20.00000000        3       1.00000000       0.00000000       0.00000000       0.00000000
H        0.00000000       1.62013441      22.29121606        2       1.00000000       0.00000000       0.00000000       0.00000000
H        2.80615512       1.62013441      22.29121606        2       1.00000000       0.00000000       0.00000000       0.00000000
H        1.40307756       4.05033604      22.29121606        2       1.00000000       0.00000000       0.00000000       0.00000000
H        4.20923268       4.05033604      22.29121606        2       1.00000000       0.00000000       0.00000000       0.00000000
H        0.00000000       0.00000000      24.58243212        1       1.00000000       0.00000000       0.00000000       0.00000000
H        2.80615512       0.00000000      24.58243212        1       1.00000000       0.00000000       0.00000000       0.00000000
H        1.40307756       2.43020162      24.58243212        1       1.00000000       0.00000000       0.00000000       0.00000000
H        4.20923268       2.43020162      24.58243212        1       1.00000000       0.00000000       0.00000000       0.00000000
H        1.65182430       3.75328210      29.72942319        0       1.00000000      -0.12415172       2.20693754       0.52889522
H        1.20309911       2.01343144      31.53716807        0       1.00000000       1.43989269      -0.47846490      -0.32963903
H        1.52350812       0.64378553      38.82847832        0       1.00000000       1.73850913       0.13632535      -0.22815739
H        0.52468759       4.19868968      36.43562494        0       1.00000000       0.94746038       0.49378825       1.38863415
H        3.26448963       2.54242749      42.73673393        0       1.00000000       0.53523612      -0.60590374       1.08083342
H        2.40994228       0.04941518      33.91465734        0       1.00000000      -0.73162002       0.20921049       2.49819950
H        0.79899515       0.81072643      42.83975151        0       1.00000000       1.22076962      -0.02178667       0.44509489
H        5.24067253       4.05639556      43.84719174        0       1.00000000       3.50251401      -2.09939091      -0.37396145
H        0.27017545       2.03654879      35.35673513        0       1.00000000       2.73924834      -1.06988415       0.56340429
21
Lattice="5.612310241546866 0.0 0.0 0.0 4.860403243099165 0.0 0.0 0.0 44.58243212332868" Properties=species:S:1:pos:R:3:tags:I:1:masses:R:1:momenta:R:3 KEmax=27.14459056223422 iter=999 volume=1216.1236359717223 set_wall=T ns_energy=16.470446211405974 last_walked_iter_clone=780 ns_P=0.0 config_n_global=999 ns_KE=25.27623607523279 pbc="T T F"
H        1.40307756       0.81006721      20.00000000        3       1.00000000       0.00000000       0.00000000       0.00000000
H        4.20923268       0.81006721      20.00000000        3       1.00000000       0.00000000       0.00000000       0.00000000
H        0.00000000       3.24026883      20.00000000        3       1.00000000       0.00000000       0.00000000       0.00000000
H        2.80615512       3.24026883      20.00000000        3       1.00000000       0.00000000       0.00000000       0.00000000
H        0.00000000       1.62013441      22.29121606        2       1.00000000       0.00000000       0.00000000       0.00000000
H        2.80615512       1.62013441      22.29121606        2       1.00000000       0.00000000       0.00000000       0.00000000
H        1.40307756       4.05033604      22.29121606        2       1.00000000       0.00000000       0.00000000       0.00000000
H        4.20923268       4.05033604      22.29121606        2       1.00000000       0.00000000       0.00000000       0.00000000
H        0.00000000       0.00000000      24.58243212        1       1.00000000       0.00000000       0.00000000       0.00000000
H        2.80615512       0.00000000      24.58243212        1       1.00000000       0.00000000       0.00000000       0.00000000
H        1.40307756       2.43020162      24.58243212        1       1.00000000       0.00000000       0.00000000       0.00000000
H        4.20923268       2.43020162      24.58243212        1       1.00000000       0.00000000       0.00000000       0.00000000
H        5.11342158       2.50485981      33.45296114        0       1.00000000      -0.45369263      -0.03648536       0.28673525
H        2.49060651       2.99902632      32.02295411        0       1.00000000       0.61527409      -0.04076909       1.50674129