18
Lattice="5.612310241546866 0.0 0.0 0.0 4.860403243099165 0.0 0.0 0.0 24.582432123328676" Properties=species:S:1:pos:R:3:tags:I:1:masses:R:1:momenta:R:3 KEmax=23.26679191048647 iter=99 volume=670.5618179858607 ns_energy=48.60875363935619 ns_P=0.0 config_n_global=99 ns_KE=9.059618755791467 pbc="T T T"
H        1.40307756       0.81006721      10.00000000        3       1.00000000       0.00000000       0.00000000       0.00000000
H        4.20923268       0.81006721      10.00000000        3       1.00000000       0.00000000       0.00000000       0.00000000
H        0.00000000       3.24026883      10.00000000        3       1.00000000       0.00000000       0.00000000       0.00000000
H        2.80615512       3.24026883      10.00000000        3       1.00000000       0.00000000       0.00000000       0.00000000
H        0.00000000       1.62013441      12.29121606        2       1.00000000       0.00000000       0.00000000       0.00000000
H        2.80615512       1.62013441      12.29121606        2       1.00000000       0.00000000       0.00000000       0.00000000
H        1.40307756       4.05033604      12.29121606        2       1.00000000       0.00000000       0.00000000       0.00000000
H        4.20923268       4.05033604      12.29121606        2       1.00000000       0.00000000       0.00000000       0.00000000
H        0.00000000       0.00000000      14.58243212        1       1.00000000       0.00000000       0.00000000       0.00000000
H        2.80615512       0.00000000      14.58243212        1       1.00000000       0.00000000       0.00000000       0.00000000
H        1.40307756       2.43020162      14.58243212        1       1.00000000       0.00000000       0.00000000       0.00000000
H        4.20923268       2.43020162      14.58243212        1       1.00000000       0.00000000       0.00000000       0.00000000
H        1.58075428       3.57039096       1.15992898        0       1.00000000       1.09699953      -0.40030494       0.65924475
H        3.34307681       0.40706764       7.87643039        0       1.00000000      -1.04159200       1.20777666      -1.71436952
H        3.74224609       2.38070449       4.92889513        0       1.00000000      -0.84249645      -0.62927347       0.76922121
H        1.46679101       1.47668570       2.46886331        0       1.00000000      -0.98386171       0.89724918       0.21068304
H        0.38397991       2.85784600       0.24510481        0       1.00000000       0.68286868       1.55180431      -0.71228908
H        1.42481049       4.37406000      19.50063400        0       1.00000000      -0.32268254       1.87149745       0.57877283
18
Lattice="5.612310241546866 0.0 0.0 0.0 4.860403243099165 0.0 0.0 0.0 24.582432123328676" Properties=species:S:1:pos:R:3:tags:I:1:masses:R:1:momenta:R:3 KEmax=23.26679191048647 iter=199 volume=670.5618179858607 ns_energy=12.9957221157472 last_walked_iter_clone=130 ns_P=0.0 config_n_global=199 ns_KE=20.8188985365965 pbc="T T T"
H        1.40307756       0.81006721      10.00000000        3       1.00000000       0.00000000       0.00000000       0.00000000
H        4.20923268       0.81006721      10.00000000        3       1.00000000       0.00000000       0.00000000       0.00000000
H        0.00000000       3.24026883      10.00000000        3       1.00000000       0.00000000       0.00000000       0.00000000
H        2.80615512       3.24026883      10.00000000        3       1.00000000       0.00000000       0.00000000       0.00000000
H        0.00000000       1.62013441      12.29121606        2       1.00000000       0.00000000       0.00000000       0.00000000
H        2.80615512       1.62013441      12.29121606        2       1.00000000       0.00000000       0.00000000       0.00000000
H        1.40307756       4.05033604      12.29121606        2       1.00000000       0.00000000       0.00000000       0.00000000
H        4.20923268       4.05033604      12.29121606        2       1.00000000       0.00000000       0.00000000       0.00000000
H        0.00000000       0.00000000      14.58243212        1       1.00000000       0.00000000       0.00000000       0.00000000
H        2.80615512       0.00000000      14.58243212        1       1.00000000       0.00000000       0.00000000       0.00000000
H        1.40307756       2.43020162      14.58243212        1       1.00000000       0.00000000       0.00000000       0.00000000
H        4.20923268       2.43020162      14.58243212        1       1.00000000       0.00000000       0.00000000       0.00000000
H        4.97991848       4.68634692       5.97725313        0       1.00000000       2.52392578       0.86187681       1.19803601
H        4.80912767       1.02071116      23.75502986        0       1.00000000      -1.55115021      -0.24672268      -2.75957032
H        3.71908755       1.12793479      18.57035791        0       1.00000000       0.21873225      -2.87356651       1.93230842
H        3.71695993       1.92452797      21.95047333        0       1.00000000       1.29074392       0.05356754      -2.71019644
H        3.48490915       2.37983149       6.51699284        0       1.00000000       0.11740334       0.44235260       0.28099279
H        1.13610523       3.92600567      22.98504062        0       1.00000000       0.05587990       0.16950601      -1.27825546
18
Lattice="5.612310241546866 0.0 0.0 0.0 4.860403243099165 0.0 0.0 0.0 24.582432123328676" Properties=species:S:1:pos:R:3:tags:I:1:masses:R:1:momenta:R:3 KEmax=23.26679191048647 iter=299 volume=670.5618179858607 ns_energy=11.165378535609051 last_walked_iter_clone=194 ns_P=0.0 config_n_global=299 ns_KE=19.183487447121774 pbc="T T T"
H        1.40307756       0.81006721      10.00000000        3       1.00000000       0.00000000       0.00000000       0.00000000
H        4.20923268       0.81006721      10.00000000        3       1.00000000       0.00000000       0.00000000       0.00000000
H        0.00000000       3.24026883      10.00000000        3       1.00000000       0.00000000       0.00000000       0.00000000
H        2.80615512       3.24026883      10.00000000        3       1.00000000       0.00000000       0.00000000       0.00000000
H        0.00000000       1.62013441      12.29121606        2       1.00000000       0.00000000       0.00000000       0.00000000
H        2.80615512       1.62013441      12.29121606        2       1.00000000       0.00000000       0.00000000       0.00000000
H        1.40307756       4.05033604      12.29121606        2       1.00000000       0.00000000       0.00000000       0.00000000
H        4.20923268       4.05033604      12.29121606        2       1.00000000       0.00000000       0.00000000       0.00000000
H        0.00000000       0.00000000      14.58243212        1       1.00000000       0.00000000       0.00000000       0.00000000
H        2.80615512       0.00000000      14.58243212        1       1.00000000       0.00000000       0.00000000       0.00000000
H        1.40307756       2.43020162      14.58243212        1       1.00000000       0.00000000       0.00000000       0.00000000
H        4.20923268       2.43020162      14.58243212        1       1.00000000       0.00000000       0.00000000       0.00000000
H        0.58042955       2.58821204       3.94037956        0       1.00000000      -0.90352186      -2.12706672       0.74940866
H        1.29036996       1.19634135      23.78255087        0       1.00000000       0.32136004       1.76144760       1.83859499
H        2.89160667       1.26459045       8.11428088        0       1.00000000       2.84018399       0.00000418      -1.47998746
H        0.04991208       2.26335336      21.84361818        0       1.00000000      -2.46285037      -1.08371792      -0.12902300
H        3.32576497       1.33655364      21.67353272        0       1.00000000       0.04366409      -0.47422100       0.86411938
H        4.04401539       3.61458075      20.09536993        0       1.00000000       1.42338359      -2.29541677      -0.30985596
18
Lattice="5.612310241546866 0.0 0.0 0.0 4.860403243099165 0.0 0.0 0.0 24.582432123328676" Properties=species:S:1:pos:R:3:tags:I:1:masses:R:1:momenta:R:3 KEmax=23.26679191048647 iter=399 volume=670.5618179858607 ns_energy=9.486269271384632 last_walked_iter_clone=323 ns_P=0.0 config_n_global=399 ns_KE=17.02481780105904 pbc="T T T"
H        1.40307756       0.81006721      10.00000000        3       1.00000000       0.00000000       0.00000000       0.00000000
H        4.20923268       0.81006721      10.00000000        3       1.00000000       0.00000000       0.00000000       0.00000000
H        0.00000000       3.24026883      10.00000000        3       1.00000000       0.00000000       0.00000000       0.00000000
H        2.80615512       3.24026883      10.00000000        3       1.00000000       0.00000000       0.00000000       0.00000000
H        0.00000000       1.62013441      12.29121606        2       1.00000000       0.00000000       0.00000000       0.00000000
H        2.80615512       1.62013441      12.29121606        2       1.00000000       0.00000000       0.00000000       0.00000000
H        1.40307756       4.05033604      12.29121606        2       1.00000000       0.00000000       0.00000000       0.00000000
H        4.20923268       4.05033604      12.29121606        2       1.00000000       0.00000000       0.00000000       0.00000000
H        0.00000000       0.00000000      14.58243212        1       1.00000000       0.00000000       0.00000000       0.00000000
H        2.80615512       0.00000000      14.58243212        1       1.00000000       0.00000000       0.00000000       0.00000000
H        1.40307756       2.43020162      14.58243212        1       1.00000000       0.00000000       0.00000000       0.00000000
H        4.20923268       2.43020162      14.58243212        1       1.00000000       0.00000000       0.00000000       0.00000000
H        2.99053447       0.93335321       5.77271401        0       1.00000000       1.21598414       1.60938890       1.11554890
H        4.62404654       3.05842073      23.71374702        0       1.00000000      -2.04190506      -1.16992487      -0.67982340
H        4.02292414       0.43925237      17.51490143        0       1.00000000      -1.13164074      -2.83671916      -0.51352347
H        2.51701429       3.63092854       1.57069006        0       1.00000000       1.60793356       0.16403896       1.42410454
H        4.86541144       3.91176381       1.21893500        0       1.00000000      -1.70393317      -0.29829111      -0.18974450
H        1.38910602       4.12291956       6.94340908        0       1.00000000      -0.34029090       2.10183336      -0.97086564
18
Lattice="5.612310241546866 0.0 0.0 0.0 4.860403243099165 0.0 0.0 0.0 24.582432123328676" Properties=species:S:1:pos:R:3:tags:I:1:masses:R:1:momenta:R:3 KEmax=23.26679191048647 iter=499 volume=670.5618179858607 ns_energy=7.9447212029664405 ns_P=0.0 config_n_global=499 ns_KE=7.609985160664057 pbc="T T T"
H        1.40307756       0.81006721      10.00000000        3       1.00000000       0.00000000       0.00000000       0.00000000
H        4.20923268       0.81006721      10.00000000        3       1.00000000       0.00000000       0.00000000       0.00000000
H        0.00000000       3.24026883      10.00000000        3       1.00000000       0.00000000       0.00000000       0.00000000
H        2.80615512       3.24026883      10.00000000        3       1.00000000       0.00000000       0.00000000       0.00000000
H        0.00000000       1.62013441      12.29121606        2       1.00000000       0.00000000       0.00000000       0.00000000
H        2.80615512       1.62013441      12.29121606        2       1.00000000       0.00000000       0.00000000       0.00000000
H        1.40307756       4.05033604      12.29121606        2       1.00000000       0.00000000       0.00000000       0.00000000
H        4.20923268       4.05033604      12.29121606        2       1.00000000       0.00000000       0.00000000       0.00000000
H        0.00000000       0.00000000      14.58243212        1       1.00000000       0.00000000       0.00000000       0.00000000
H        2.80615512       0.00000000      14.58243212        1       1.00000000       0.00000000       0.00000000       0.00000000
H        1.40307756       2.43020162      14.58243212        1       1.00000000       0.00000000       0.00000000       0.00000000
H        4.20923268       2.43020162      14.58243212        1       1.00000000       0.00000000       0.00000000       0.00000000
H        3.12905908       2.93405091       7.69691212        0       1.00000000       1.22756065      -1.76958229       0.31387249
H        5.06819321       4.85223230      20.72813402        0       1.00000000       0.82109539       0.51565000      -0.44099428
H        2.74492578       0.30758415      22.06908954        0       1.00000000       1.02336827      -0.88455510      -1.84339177
H        3.61080446       1.13511868       4.21280077        0       1.00000000      -0.19126662       0.12825667       0.44710622
H        3.07073679       4.51500558       5.27722022        0       1.00000000       0.26818645      -0.35522501      -0.80557825
H        0.56432943       1.15348501       5.12361394        0       1.00000000      -0.00670025       1.53049764      -0.82357514
18
Lattice="5.612310241546866 0.0 0.0 0.0 4.860403243099165 0.0 0.0 0.0 24.582432123328676" Properties=species:S:1:pos:R:3:tags:I:1:masses:R:1:momenta:R:3 KEmax=23.26679191048647 iter=599 volume=670.5618179858607 ns_energy=6.562530988119431 last_walked_iter_clone=517 ns_P=0.0 config_n_global=599 ns_KE=13.649892311601846 pbc="T T T"
H        1.40307756       0.81006721      10.00000000        3       1.00000000       0.00000000       0.00000000       0.00000000
H        4.20923268       0.81006721      10.00000000        3       1.00000000       0.00000000       0.00000000       0.00000000
H        0.00000000       3.24026883      10.00000000        3       1.00000000       0.00000000       0.00000000       0.00000000
H        2.80615512       3.24026883      10.00000000        3       1.00000000       0.00000000       0.00000000       0.00000000
H        0.00000000       1.62013441      12.29121606        2       1.00000000       0.00000000       0.00000000       0.00000000
H        2.80615512       1.62013441      12.29121606        2       1.00000000       0.00000000       0.00000000       0.00000000
H        1.40307756       4.05033604      12.29121606        2       1.00000000       0.00000000       0.00000000       0.00000000
H        4.20923268       4.05033604      12.29121606        2       1.00000000       0.00000000       0.00000000       0.00000000
H        0.00000000       0.00000000      14.58243212        1       1.00000000       0.00000000       0.00000000       0.00000000
H        2.80615512       0.00000000      14.58243212        1       1.00000000       0.00000000       0.00000000       0.00000000
H        1.40307756       2.43020162      14.58243212        1       1.00000000       0.00000000       0.00000000       0.00000000
H        4.20923268       2.43020162      14.58243212        1       1.00000000       0.00000000       0.00000000       0.00000000
H        4.01752991       4.62579917      16.48011467        0       1.00000000       0.53770357       1.27841817       0.10887078
H        0.73050146       2.10146393      18.26371812        0       1.00000000       0.39311031      -0.62185772      -0.46718273
H        1.62518206       3.21770055       3.37207557        0       1.00000000       0.98553063      -2.41929318       1.40280466
H        0.83615126       0.07990257      16.60675450        0       1.00000000       0.94955165      -2.38537098      -1.25501674
H        2.17257046       2.81292746       5.93819370        0       1.00000000      -1.17532572       0.64161145      -1.37529200
H        3.55854934       2.83633975      20.80727219        0       1.00000000       1.24632802       1.54103401      -0.18310341
18
Lattice="5.612310241546866 0.0 0.0 0.0 4.860403243099165 0.0 0.0 0.0 24.582432123328676" Properties=species:S:1:pos:R:3:tags:I:1:masses:R:1:momenta:R:3 KEmax=23.26679191048647 iter=699 volume=670.5618179858607 ns_energy=5.385954318743816 last_walked_iter_clone=609 ns_P=0.0 config_n_global=699 ns_KE=10.91694718714591 pbc="T T T"
H        1.40307756       0.81006721      10.00000000        3       1.00000000       0.00000000       0.00000000       0.00000000
H        4.20923268       0.81006721      10.00000000        3       1.00000000       0.00000000       0.00000000       0.00000000
H        0.00000000       3.24026883      10.00000000        3       1.00000000       0.00000000       0.00000000       0.00000000
H        2.80615512       3.24026883      10.00000000        3       1.00000000       0.00000000       0.00000000       0.00000000
H        0.00000000       1.62013441      12.29121606        2       1.00000000       0.00000000       0.00000000       0.00000000
H        2.80615512       1.62013441      12.29121606        2       1.00000000       0.00000000       0.00000000       0.00000000
H        1.40307756       4.05033604      12.29121606        2       1.00000000       0.00000000       0.00000000       0.00000000
H        4.20923268       4.05033604      12.29121606        2       1.00000000       0.00000000       0.00000000       0.00000000
H        0.00000000       0.00000000      14.58243212        1       1.00000000       0.00000000       0.00000000       0.00000000
H        2.80615512       0.00000000      14.58243212        1       1.00000000       0.00000000       0.00000000       0.00000000
H        1.40307756       2.43020162      14.58243212        1       1.00000000       0.00000000       0.00000000       0.00000000
H        4.20923268       2.43020162      14.58243212        1       1.00000000       0.00000000       0.00000000       0.00000000
H        2.49589970       2.79016389       7.02207512        0       1.00000000       1.90891257      -0.35462548      -1.32723729
H        2.13275735       4.72081510      24.54090589        0       1.00000000      -0.51346341      -0.36855198      -0.42524038
H        4.14461331       1.79436419      17.50305684        0       1.00000000      -0.43357279      -2.02898373      -0.24221346
H        2.78857901       0.35910483       5.20050457        0       1.00000000      -1.40840318       1.54507966      -0.85999352
H        4.63285691       4.12783690      19.33847133        0       1.00000000       2.01109940      -0.50973425       0.02685181
H        3.92261307      -0.01683540      16.52878178        0       1.00000000       0.21085523      -1.33236306      -0.35173172
18
Lattice="5.612310241546866 0.0 0.0 0.0 4.860403243099165 0.0 0.0 0.0 24.582432123328676" Properties=species:S:1:pos:R:3:tags:I:1:masses:R:1:momenta:R:3 KEmax=23.26679191048647 iter=799 volume=670.5618179858607 ns_energy=4.358460254912327 last_walked_iter_clone=712 ns_P=0.0 config_n_global=799 ns_KE=12.521610215366229 pbc="T T T"
H        1.40307756       0.81006721      10.00000000        3       1.00000000       0.00000000       0.00000000       0.00000000
H        4.20923268       0.81006721      10.00000000        3       1.00000000       0.00000000       0.00000000       0.00000000
H        0.00000000       3.24026883      10.00000000        3       1.00000000       0.00000000       0.00000000       0.00000000
H        2.80615512       3.24026883      10.00000000        3       1.00000000       0.00000000       0.00000000       0.00000000
H        0.00000000       1.62013441      12.29121606        2       1.00000000       0.00000000       0.00000000       0.00000000
H        2.80615512       1.62013441      12.29121606        2       1.00000000       0.00000000       0.00000000       0.00000000
H        1.40307756       4.05033604      12.29121606        2       1.00000000       0.00000000       0.00000000       0.00000000
H        4.20923268       4.05033604      12.29121606        2       1.00000000       0.00000000       0.00000000       0.00000000
H        0.00000000       0.00000000      14.58243212        1       1.00000000       0.00000000       0.00000000       0.00000000
H        2.80615512       0.00000000      14.58243212        1       1.00000000       0.00000000       0.00000000       0.00000000
H        1.40307756       2.43020162      14.58243212        1       1.00000000       0.00000000       0.00000000       0.00000000
H        4.20923268       2.43020162      14.58243212        1       1.00000000       0.00000000       0.00000000       0.00000000
H        0.17236888       0.17558224       7.09968856        0       1.00000000      -2.00514119      -1.00094037       0.87023393
H        2.65951473       4.41473377      24.24820270        0       1.00000000      -0.00992568       0.08157449      -0.24592967
H        1.36390232       1.83639992      22.32171673        0       1.00000000       0.95105178       1.20170032       0.53223031
H        4.95145764       4.38202124      23.87451702        0       1.00000000       1.72787306       0.79544266       0.63682352
H        2.23763290       4.08682959      21.05541292        0       1.00000000      -1.74721583      -2.31619000      -1.43420215
H        3.51430028       3.97181854      18.50941799        0       1.00000000      -0.37411340      -0.16733807       1.37772909
18
Lattice="5.612310241546866 0.0 0.0 0.0 4.860403243099165 0.0 0.0 0.0 24.582432123328676" Properties=species:S:1:pos:R:3:tags:I:1:masses:R:1:momenta:R:3 KEmax=23.26679191048647 iter=899 volume=670.5618179858607 ns_energy=3.2634172081013455 last_walked_iter_clone=824 ns_P=0.0 config_n_global=899 ns_KE=11.103614182062131 pbc="T T T"
H        1.40307756       0.81006721      10.00000000        3       1.00000000       0.00000000       0.00000000       0.00000000
H        4.20923268       0.81006721      10.00000000        3       1.00000000       0.00000000       0.00000000       0.00000000
H        0.00000000       3.24026883      10.00000000        3       1.00000000       0.00000000       0.00000000       0.00000000
H        2.80615512       3.24026883      10.00000000        3       1.00000000       0.00000000       0.00000000       0.00000000
H        0.00000000       1.62013441      12.29121606        2       1.00000000       0.00000000       0.00000000       0.00000000
H        2.80615512       1.62013441      12.29121606        2       1.00000000       0.00000000       0.00000000       0.00000000
H        1.40307756       4.05033604      12.29121606        2       1.00000000       0.00000000       0.00000000       0.00000000
H        4.20923268       4.05033604      12.29121606        2       1.00000000       0.00000000       0.00000000       0.00000000
H        0.00000000       0.00000000      14.58243212        1       1.00000000       0.00000000       0.00000000       0.00000000
H        2.80615512       0.00000000      14.58243212        1       1.00000000       0.00000000       0.00000000       0.00000000
H        1.40307756       2.43020162      14.58243212        1       1.00000000       0.00000000       0.00000000       0.00000000
H        4.20923268       2.43020162      14.58243212        1       1.00000000       0.00000000       0.00000000       0.00000000
H        0.37474864       2.66523909       7.89894814        0       1.00000000      -0.30126221      -1.43621505       0.38464219
H        1.92343150       3.99348393      16.77775210        0       1.00000000       1.52184368      -0.99458048      -0.19881645
H        0.27786003       3.63059699       0.75825744        0       1.00000000      -0.11817740      -0.82507425      -1.29302313
H        1.56412406       0.51169173       4.37105677        0       1.00000000       0.64947321      -0.41698968      -1.22654550
H        2.77826330       1.53440188      17.84156355        0       1.00000000       0.64251104      -0.03650340      -1.36675604
H        2.37317680       2.43048162      23.88861541        0       1.00000000       2.94728857       0.15218007       1.05000193
18
Lattice="5.612310241546866 0.0 0.0 0.0 4.860403243099165 0.0 0.0 0.0 24.582432123328676" Properties=species:S:1:pos:R:3:tags:I:1:masses:R:1:momenta:R:3 KEmax=23.26679191048647 iter=999 volume=670.5618179858607 ns_energy=2.319650476551114 last_walked_iter_clone=851 ns_P=0.0 config_n_global=999 ns_KE=10.767568480699271 pbc="T T T"
H        1.40307756       0.81006721      10.00000000        3       1.00000000       0.00000000       0.00000000       0.00000000
H        4.20923268       0.81006721      10.00000000        3       1.00000000       0.00000000       0.00000000       0.00000000
H        0.00000000       3.24026883      10.00000000        3       1.00000000       0.00000000       0.00000000       0.00000000
H        2.80615512       3.24026883      10.00000000        3       1.00000000       0.00000000       0.00000000       0.00000000
H        0.00000000       1.62013441      12.29121606        2       1.00000000       0.00000000       0.00000000       0.00000000
H        2.80615512       1.62013441      12.29121606        2       1.00000000       0.00000000       0.00000000       0.00000000
H        1.40307756       4.05033604      12.29121606        2       1.00000000       0.00000000       0.00000000       0.00000000
H        4.20923268       4.05033604      12.29121606        2       1.00000000       0.00000000       0.00000000       0.00000000
H        0.00000000       0.00000000      14.58243212        1       1.00000000       0.00000000       0.00000000       0.00000000
H        2.80615512       0.00000000      14.58243212        1       1.00000000       0.00000000       0.00000000       0.00000000
H        1.40307756       2.43020162      14.58243212        1       1.00000000       0.00000000       0.00000000       0.00000000
H        4.20923268       2.43020162      14.58243212        1       1.00000000       0.00000000       0.00000000       0.00000000
H        3.84259334      -0.06885574      16.92261388        0       1.00000000       1.30527986      -0.92285947       0.03690560
H        2.15222931       4.02097772       2.43124043        0       1.00000000      -0.42027415      -2.35342535       0.91793364
H        1.49901002       4.73333280      23.04736076        0       1.00000000       1.36258294       0.01516522       0.10641651
H        1.91057958       1.52181864      17.80901145        0       1.00000000      -0.86949724      -1.50532464       1.47673155
H        4.90258497       1.51510539       4.13257163        0       1.00000000      -0.57364651      -0.81880594       0.97111245
H        1.92589908       2.78609487      20.56172411        0       1.00000000       0.53334927       0.61168634      -1.65781827
18
Lattice="5.612310241546866 0.0 0.0 0.0 4.860403243099165 0.0 0.0 0.0 24.582432123328676" Properties=species:S:1:pos:R:3:tags:I:1:masses:R:1:momenta:R:3 KEmax=23.26679191048647 iter=1099 volume=670.5618179858607 ns_energy=1.5178179418955968 last_walked_iter_clone=995 ns_P=0.0 config_n_global=1099 ns_KE=9.831243280929703 pbc="T T T"
H        1.40307756       0.81006721      10.00000000        3       1.00000000       0.00000000       0.00000000       0.00000000
H        4.20923268       0.81006721      10.00000000        3       1.00000000       0.00000000       0.00000000       0.00000000
H        0.00000000       3.24026883      10.00000000        3       1.00000000       0.00000000       0.00000000       0.00000000
H        2.80615512       3.24026883      10.00000000        3       1.00000000       0.00000000       0.00000000       0.00000000
H        0.00000000       1.62013441      12.29121606        2       1.00000000       0.00000000       0.00000000       0.00000000
H        2.80615512       1.62013441      12.29121606        2       1.00000000       0.00000000       0.00000000       0.00000000
H        1.40307756       4.05033604      12.29121606        2       1.00000000       0.00000000       0.00000000       0.00000000
H        4.20923268       4.05033604      12.29121606        2       1.00000000       0.00000000       0.00000000       0.00000000
H        0.00000000       0.00000000      14.58243212        1       1.00000000       0.00000000       0.00000000       0.00000000
H        2.80615512       0.00000000      14.58243212        1       1.00000000       0.00000000       0.00000000       0.00000000
H        1.40307756       2.43020162      14.58243212        1       1.00000000       0.00000000       0.00000000       0.00000000
H        4.20923268       2.43020162      14.58243212        1       1.00000000       0.00000000       0.00000000       0.00000000
H        5.68754732       2.16732863       1.70012190        0       1.00000000       1.20686158      -0.30372237      -1.00861034
H        1.14263577       0.68713468      24.28026786        0       1.00000000       0.41969142       1.71569199       1.83462020
H        3.17542583       3.96859317      17.83757790        0       1.00000000      -0.45270070       1.57756478       0.12827117
H        3.25719466       3.70685721      23.81432503        0       1.00000000      -1.17144741      -0.85287490       1.31606540
H        5.06916573      -0.20745214       4.07774626        0       1.00000000       0.51388148      -1.30076370      -0.27552738
H        2.69165271       1.04176646      22.31564287        0       1.00000000       0.09608434       1.31123235       0.55543267
18
Lattice="5.612310241546866 0.0 0.0 0.0 4.860403243099165 0.0 0.0 0.0 24.582432123328676" Properties=species:S:1:pos:R:3:tags:I:1:masses:R:1:momenta:R:3 KEmax=23.26679191048647 iter=1199 volume=670.5618179858607 ns_energy=0.8678366555227476 last_walked_iter_clone=1110 ns_P=0.0 config_n_global=1199 ns_KE=8.660194304689634 pbc="T T T"