18
Lattice="5.612310241546866 0.0 0.0 0.0 4.860403243099165 0.0 0.0 0.0 24.582432123328676" Properties=species:S:1:pos:R:3:tags:I:1:masses:R:1:momenta:R:3:forces:R:3 KEmax=23.26679191048647 iter=87268 volume=670.5618179858607 ns_energy=-11.647137731965273 last_walked_iter_clone=87266 energy=-11.647137732008183 stress="0.00823548502277828 -1.8158788638722203e-08 5.377360664518197e-09 -1.8158788638722203e-08 0.008228489908840085 1.9536235817261704e-08 5.377360664518197e-09 1.9536235817261704e-08 0.00421519907240307" pbc="T T T"
H        1.40307756       0.81006721      10.00000000        3       1.00000000       0.00000000       0.00000000       0.00000000       0.00000000       0.00000000       0.00000000
H        4.20923268       0.81006721      10.00000000        3       1.00000000       0.00000000       0.00000000       0.00000000       0.00000000       0.00000000       0.00000000
H        0.00000000       3.24026883      10.00000000        3       1.00000000       0.00000000       0.00000000       0.00000000       0.00000000       0.00000000       0.00000000
H        2.80615512       3.24026883      10.00000000        3       1.00000000       0.00000000       0.00000000       0.00000000       0.00000000       0.00000000       0.00000000
H        0.00000000       1.62013441      12.29121606        2       1.00000000       0.00000000       0.00000000       0.00000000       0.00000000       0.00000000       0.00000000
H        2.80615512       1.62013441      12.29121606        2       1.00000000       0.00000000       0.00000000       0.00000000       0.00000000       0.00000000       0.00000000
H        1.40307756       4.05033604      12.29121606        2       1.00000000       0.00000000       0.00000000       0.00000000       0.00000000       0.00000000       0.00000000
H        4.20923268       4.05033604      12.29121606        2       1.00000000       0.00000000       0.00000000       0.00000000       0.00000000       0.00000000       0.00000000
H        0.00000000       0.00000000      14.58243212        1       1.00000000       0.00000000       0.00000000       0.00000000       0.00000000       0.00000000       0.00000000
H        2.80615512       0.00000000      14.58243212        1       1.00000000       0.00000000       0.00000000       0.00000000       0.00000000       0.00000000       0.00000000
H        1.40307756       2.43020162      14.58243212        1       1.00000000       0.00000000       0.00000000       0.00000000       0.00000000       0.00000000       0.00000000
H        4.20923268       2.43020162      14.58243212        1       1.00000000       0.00000000       0.00000000       0.00000000       0.00000000       0.00000000       0.00000000
H        0.01031084       1.60552739      16.81344921        0       1.00000000       0.00000326       0.00000167      -0.00000122       0.00000000      -0.00000058       0.00000417
H        2.80236378       1.63315183      16.78912754        0       1.00000000      -0.00000125      -0.00000057      -0.00000188      -0.00000820       0.00000085      -0.00000880
H        4.21302319       4.06335395      16.78912647        0       1.00000000       0.00000557      -0.00000060       0.00000371       0.00000270       0.00000150      -0.00000677
H        2.79990019       0.01927023      19.01656439        0       1.00000000       0.00000070       0.00000083      -0.00000138       0.00000046       0.00000039       0.00000662
H        4.21549281       2.44947302      19.01656223        0       1.00000000      -0.00000007      -0.00000096      -0.00000421       0.00000421      -0.00000140       0.00000248
H        1.39276846       4.03573077      16.81345053        0       1.00000000       0.00000366       0.00000114       0.00000004      -0.00000544       0.00000292      -0.00000112
18
Lattice="5.612310241546866 0.0 0.0 0.0 4.860403243099165 0.0 0.0 0.0 24.582432123328676" Properties=species:S:1:pos:R:3:tags:I:1:masses:R:1:momenta:R:3:forces:R:3 KEmax=23.26679191048647 iter=87268 volume=670.5618179858607 ns_energy=-11.647137731967018 last_walked_iter_clone=87215 energy=-11.647137732008183 stress="0.00823548502277828 -1.8158788638722203e-08 5.377360664518197e-09 -1.8158788638722203e-08 0.008228489908840085 1.9536235817261704e-08 5.377360664518197e-09 1.9536235817261704e-08 0.00421519907240307" pbc="T T T"
H        1.40307756       0.81006721      10.00000000        3       1.00000000       0.00000000       0.00000000       0.00000000       0.00000000       0.00000000       0.00000000
H        4.20923268       0.81006721      10.00000000        3       1.00000000       0.00000000       0.00000000       0.00000000       0.00000000       0.00000000       0.00000000
H        0.00000000       3.24026883      10.00000000        3       1.00000000       0.00000000       0.00000000       0.00000000       0.00000000       0.00000000       0.00000000
H        2.80615512       3.24026883      10.00000000        3       1.00000000       0.00000000       0.00000000       0.00000000       0.00000000       0.00000000       0.00000000
H        0.00000000       1.62013441      12.29121606        2       1.00000000       0.00000000       0.00000000       0.00000000       0.00000000       0.00000000       0.00000000
H        2.80615512       1.62013441      12.29121606        2       1.00000000       0.00000000       0.00000000       0.00000000       0.00000000       0.00000000       0.00000000
H        1.40307756       4.05033604      12.29121606        2       1.00000000       0.00000000       0.00000000       0.00000000       0.00000000       0.00000000       0.00000000
H        4.20923268       4.05033604      12.29121606        2       1.00000000       0.00000000       0.00000000       0.00000000       0.00000000       0.00000000       0.00000000
H        0.00000000       0.00000000      14.58243212        1       1.00000000       0.00000000       0.00000000       0.00000000       0.00000000       0.00000000       0.00000000
H        2.80615512       0.00000000      14.58243212        1       1.00000000       0.00000000       0.00000000       0.00000000       0.00000000       0.00000000       0.00000000
H        1.40307756       2.43020162      14.58243212        1       1.00000000       0.00000000       0.00000000       0.00000000       0.00000000       0.00000000       0.00000000
H        4.20923268       2.43020162      14.58243212        1       1.00000000       0.00000000       0.00000000       0.00000000       0.00000000       0.00000000       0.00000000
H        0.01031230       1.60553116      16.81344785        0       1.00000000       0.00000185       0.00000074      -0.00000274       0.00000000      -0.00000058       0.00000417
H        2.80236132       1.63315209      16.78912425        0       1.00000000       0.00000132      -0.00000374       0.00000204      -0.00000820       0.00000085      -0.00000880
H        4.21302353       4.06335523      16.78912661        0       1.00000000      -0.00000247       0.00000193      -0.00000098       0.00000270       0.00000150      -0.00000677
H        2.79989497       0.01926921      19.01656449        0       1.00000000       0.00000037       0.00000118       0.00000141       0.00000046       0.00000039       0.00000662
H        4.21548721       2.44946896      19.01656388        0       1.00000000       0.00000082       0.00000317      -0.00000242       0.00000421      -0.00000140       0.00000248
H        1.39276749       4.03573227      16.81344896        0       1.00000000       0.00000235       0.00000152       0.00000009      -0.00000544       0.00000292      -0.00000112
18
Lattice="5.612310241546866 0.0 0.0 0.0 4.860403243099165 0.0 0.0 0.0 24.582432123328676" Properties=species:S:1:pos:R:3:tags:I:1:masses:R:1:momenta:R:3:forces:R:3 KEmax=23.26679191048647 iter=87268 volume=670.5618179858607 ns_energy=-11.64713773196666 last_walked_iter_clone=87059 energy=-11.647137732008183 stress="0.00823548502277828 -1.8158788638722203e-08 5.377360664518197e-09 -1.8158788638722203e-08 0.008228489908840085 1.9536235817261704e-08 5.377360664518197e-09 1.9536235817261704e-08 0.00421519907240307" pbc="T T T"
H        1.40307756       0.81006721      10.00000000        3       1.00000000       0.00000000       0.00000000       0.00000000       0.00000000       0.00000000       0.00000000
H        4.20923268       0.81006721      10.00000000        3       1.00000000       0.00000000       0.00000000       0.00000000       0.00000000       0.00000000       0.00000000
H        0.00000000       3.24026883      10.00000000        3       1.00000000       0.00000000       0.00000000       0.00000000       0.00000000       0.00000000       0.00000000
H        2.80615512       3.24026883      10.00000000        3       1.00000000       0.00000000       0.00000000       0.00000000       0.00000000       0.00000000       0.00000000
H        0.00000000       1.62013441      12.29121606        2       1.00000000       0.00000000       0.00000000       0.00000000       0.00000000       0.00000000       0.00000000
H        2.80615512       1.62013441      12.29121606        2       1.00000000       0.00000000       0.00000000       0.00000000       0.00000000       0.00000000       0.00000000
H        1.40307756       4.05033604      12.29121606        2       1.00000000       0.00000000       0.00000000       0.00000000       0.00000000       0.00000000       0.00000000
H        4.20923268       4.05033604      12.29121606        2       1.00000000       0.00000000       0.00000000       0.00000000       0.00000000       0.00000000       0.00000000
H        0.00000000       0.00000000      14.58243212        1       1.00000000       0.00000000       0.00000000       0.00000000       0.00000000       0.00000000       0.00000000
H        2.80615512       0.00000000      14.58243212        1       1.00000000       0.00000000       0.00000000       0.00000000       0.00000000       0.00000000       0.00000000
H        1.40307756       2.43020162      14.58243212        1       1.00000000       0.00000000       0.00000000       0.00000000       0.00000000       0.00000000       0.00000000
H        4.20923268       2.43020162      14.58243212        1       1.00000000       0.00000000       0.00000000       0.00000000       0.00000000       0.00000000       0.00000000
H        0.01031102       1.60553164      16.81345070        0       1.00000000       0.00000293      -0.00000216       0.00000062       0.00000000      -0.00000058       0.00000417
H        2.80236330       1.63315586      16.78912717        0       1.00000000       0.00000190       0.00000330      -0.00000314      -0.00000820       0.00000085      -0.00000880
H        4.21302256       4.06335640      16.78912635        0       1.00000000      -0.00000427       0.00000360      -0.00000395       0.00000270       0.00000150      -0.00000677
H        2.79989476       0.01927675      19.01656309        0       1.00000000       0.00000047      -0.00000125       0.00000024       0.00000046       0.00000039       0.00000662
H        4.21548882       2.44947679      19.01656569        0       1.00000000       0.00000326      -0.00000138       0.00000436       0.00000421      -0.00000140       0.00000248
H        1.39276491       4.03573286      16.81344969        0       1.00000000      -0.00000190      -0.00000054      -0.00000021      -0.00000544       0.00000292      -0.00000112
18
Lattice="5.612310241546866 0.0 0.0 0.0 4.860403243099165 0.0 0.0 0.0 24.582432123328676" Properties=species:S:1:pos:R:3:tags:I:1:masses:R:1:momenta:R:3:forces:R:3 KEmax=23.26679191048647 iter=87268 volume=670.5618179858607 ns_energy=-11.647137731965147 last_walked_iter_clone=87181 energy=-11.647137732008183 stress="0.00823548502277828 -1.8158788638722203e-08 5.377360664518197e-09 -1.8158788638722203e-08 0.008228489908840085 1.9536235817261704e-08 5.377360664518197e-09 1.9536235817261704e-08 0.00421519907240307" pbc="T T T"
H        1.40307756       0.81006721      10.00000000        3       1.00000000       0.00000000       0.00000000       0.00000000       0.00000000       0.00000000       0.00000000
H        4.20923268       0.81006721      10.00000000        3       1.00000000       0.00000000       0.00000000       0.00000000       0.00000000       0.00000000       0.00000000
H        0.00000000       3.24026883      10.00000000        3       1.00000000       0.00000000       0.00000000       0.00000000       0.00000000       0.00000000       0.00000000
H        2.80615512       3.24026883      10.00000000        3       1.00000000       0.00000000       0.00000000       0.00000000       0.00000000       0.00000000       0.00000000
H        0.00000000       1.62013441      12.29121606        2       1.00000000       0.00000000       0.00000000       0.00000000       0.00000000       0.00000000       0.00000000
H        2.80615512       1.62013441      12.29121606        2       1.00000000       0.00000000       0.00000000       0.00000000       0.00000000       0.00000000       0.00000000
H        1.40307756       4.05033604      12.29121606        2       1.00000000       0.00000000       0.00000000       0.00000000       0.00000000       0.00000000       0.00000000
H        4.20923268       4.05033604      12.29121606        2       1.00000000       0.00000000       0.00000000       0.00000000       0.00000000       0.00000000       0.00000000
H        0.00000000       0.00000000      14.58243212        1       1.00000000       0.00000000       0.00000000       0.00000000       0.00000000       0.00000000       0.00000000
H        2.80615512       0.00000000      14.58243212        1       1.00000000       0.00000000       0.00000000       0.00000000       0.00000000       0.00000000       0.00000000
H        1.40307756       2.43020162      14.58243212        1       1.00000000       0.00000000       0.00000000       0.00000000       0.00000000       0.00000000       0.00000000
H        4.20923268       2.43020162      14.58243212        1       1.00000000       0.00000000       0.00000000       0.00000000       0.00000000       0.00000000       0.00000000
H        0.01031407       1.60553025      16.81345090        0       1.00000000       0.00000193       0.00000120       0.00000160       0.00000000      -0.00000058       0.00000417
H        2.80236324       1.63315417      16.78912866        0       1.00000000       0.00000089      -0.00000032      -0.00000057      -0.00000820       0.00000085      -0.00000880
H        4.21302614       4.06335586      16.78912715        0       1.00000000       0.00000099      -0.00000268      -0.00000085       0.00000270       0.00000150      -0.00000677
H        2.79989960       0.01927229      19.01656627        0       1.00000000       0.00000182      -0.00000130       0.00000281       0.00000046       0.00000039       0.00000662
H        4.21548983       2.44947111      19.01656682        0       1.00000000      -0.00000215      -0.00000622      -0.00000300       0.00000421      -0.00000140       0.00000248
H        1.39276895       4.03573250      16.81344997        0       1.00000000      -0.00000310      -0.00000150      -0.00000213      -0.00000544       0.00000292      -0.00000112
18
Lattice="5.612310241546866 0.0 0.0 0.0 4.860403243099165 0.0 0.0 0.0 24.582432123328676" Properties=species:S:1:pos:R:3:tags:I:1:masses:R:1:momenta:R:3:forces:R:3 KEmax=23.26679191048647 iter=87268 volume=670.5618179858607 ns_energy=-11.647137731966636 last_walked_iter_clone=87222 energy=-11.647137732008183 stress="0.00823548502277828 -1.8158788638722203e-08 5.377360664518197e-09 -1.8158788638722203e-08 0.008228489908840085 1.9536235817261704e-08 5.377360664518197e-09 1.9536235817261704e-08 0.00421519907240307" pbc="T T T"
H        1.40307756       0.81006721      10.00000000        3       1.00000000       0.00000000       0.00000000       0.00000000       0.00000000       0.00000000       0.00000000
H        4.20923268       0.81006721      10.00000000        3       1.00000000       0.00000000       0.00000000       0.00000000       0.00000000       0.00000000       0.00000000
H        0.00000000       3.24026883      10.00000000        3       1.00000000       0.00000000       0.00000000       0.00000000       0.00000000       0.00000000       0.00000000
H        2.80615512       3.24026883      10.00000000        3       1.00000000       0.00000000       0.00000000       0.00000000       0.00000000       0.00000000       0.00000000
H        0.00000000       1.62013441      12.29121606        2       1.00000000       0.00000000       0.00000000       0.00000000       0.00000000       0.00000000       0.00000000
H        2.80615512       1.62013441      12.29121606        2       1.00000000       0.00000000       0.00000000       0.00000000       0.00000000       0.00000000       0.00000000
H        1.40307756       4.05033604      12.29121606        2       1.00000000       0.00000000       0.00000000       0.00000000       0.00000000       0.00000000       0.00000000
H        4.20923268       4.05033604      12.29121606        2       1.00000000       0.00000000       0.00000000       0.00000000       0.00000000       0.00000000       0.00000000
H        0.00000000       0.00000000      14.58243212        1       1.00000000       0.00000000       0.00000000       0.00000000       0.00000000       0.00000000       0.00000000
H        2.80615512       0.00000000      14.58243212        1       1.00000000       0.00000000       0.00000000       0.00000000       0.00000000       0.00000000       0.00000000
H        1.40307756       2.43020162      14.58243212        1       1.00000000       0.00000000       0.00000000       0.00000000       0.00000000       0.00000000       0.00000000
H        4.20923268       2.43020162      14.58243212        1       1.00000000       0.00000000       0.00000000       0.00000000       0.00000000       0.00000000       0.00000000
H        0.01031162       1.60552911      16.81345011        0       1.00000000      -0.00000183      -0.00000304       0.00000412       0.00000000      -0.00000058       0.00000417
H        2.80236503       1.63315280      16.78912718        0       1.00000000      -0.00000217      -0.00000041      -0.00000006      -0.00000820       0.00000085      -0.00000880
H        4.21302733       4.06335314      16.78912690        0       1.00000000      -0.00000089      -0.00000186      -0.00000220       0.00000270       0.00000150      -0.00000677
H        2.79990008       0.01926923      19.01656097        0       1.00000000      -0.00000019       0.00000003      -0.00000123       0.00000046       0.00000039       0.00000662
H        4.21548876       2.44947212      19.01656585        0       1.00000000       0.00000335      -0.00000248      -0.00000259       0.00000421      -0.00000140       0.00000248
H        1.39276927       4.03573119      16.81344958        0       1.00000000       0.00000181       0.00000019       0.00000472      -0.00000544       0.00000292      -0.00000112
18
Lattice="5.612310241546866 0.0 0.0 0.0 4.860403243099165 0.0 0.0 0.0 24.582432123328676" Properties=species:S:1:pos:R:3:tags:I:1:masses:R:1:momenta:R:3:forces:R:3 KEmax=23.26679191048647 iter=87268 volume=670.5618179858607 ns_energy=-11.647137731964355 last_walked_iter_clone=87234 energy=-11.647137732008183 stress="0.00823548502277828 -1.8158788638722203e-08 5.377360664518197e-09 -1.8158788638722203e-08 0.008228489908840085 1.9536235817261704e-08 5.377360664518197e-09 1.9536235817261704e-08 0.00421519907240307" pbc="T T T"
H        1.40307756       0.81006721      10.00000000        3       1.00000000       0.00000000       0.00000000       0.00000000       0.00000000       0.00000000       0.00000000
H        4.20923268       0.81006721      10.00000000        3       1.00000000       0.00000000       0.00000000       0.00000000       0.00000000       0.00000000       0.00000000
H        0.00000000       3.24026883      10.00000000        3       1.00000000       0.00000000       0.00000000       0.00000000       0.00000000       0.00000000       0.00000000
H        2.80615512       3.24026883      10.00000000        3       1.00000000       0.00000000       0.00000000       0.00000000       0.00000000       0.00000000       0.00000000
H        0.00000000       1.62013441      12.29121606        2       1.00000000       0.00000000       0.00000000       0.00000000       0.00000000       0.00000000       0.00000000
H        2.80615512       1.62013441      12.29121606        2       1.00000000       0.00000000       0.00000000       0.00000000       0.00000000       0.00000000       0.00000000
H        1.40307756       4.05033604      12.29121606        2       1.00000000       0.00000000       0.00000000       0.00000000       0.00000000       0.00000000       0.00000000
H        4.20923268       4.05033604      12.29121606        2       1.00000000       0.00000000       0.00000000       0.00000000       0.00000000       0.00000000       0.00000000
H        0.00000000       0.00000000      14.58243212        1       1.00000000       0.00000000       0.00000000       0.00000000       0.00000000       0.00000000       0.00000000
H        2.80615512       0.00000000      14.58243212        1       1.00000000       0.00000000       0.00000000       0.00000000       0.00000000       0.00000000       0.00000000
H        1.40307756       2.43020162      14.58243212        1       1.00000000       0.00000000       0.00000000       0.00000000       0.00000000       0.00000000       0.00000000
H        4.20923268       2.43020162      14.58243212        1       1.00000000       0.00000000       0.00000000       0.00000000       0.00000000       0.00000000       0.00000000
H        0.01031294       1.60552928      16.81345141        0       1.00000000       0.00000214      -0.00000084       0.00000337       0.00000000      -0.00000058       0.00000417
H        2.80236525       1.63315319      16.78912624        0       1.00000000      -0.00000540       0.00000469       0.00000170      -0.00000820       0.00000085      -0.00000880
H        4.21302587       4.06335565      16.78912686        0       1.00000000       0.00000118      -0.00000183      -0.00000216       0.00000270       0.00000150      -0.00000677
H        2.79989709       0.01927375      19.01656394        0       1.00000000      -0.00000152       0.00000177       0.00000332       0.00000046       0.00000039       0.00000662
H        4.21548781       2.44947897      19.01656421        0       1.00000000       0.00000197       0.00000188       0.00000157       0.00000421      -0.00000140       0.00000248
H        1.39276844       4.03573124      16.81345041        0       1.00000000      -0.00000042       0.00000045      -0.00000163      -0.00000544       0.00000292      -0.00000112
18
Lattice="5.612310241546866 0.0 0.0 0.0 4.860403243099165 0.0 0.0 0.0 24.582432123328676" Properties=species:S:1:pos:R:3:tags:I:1:masses:R:1:momenta:R:3:forces:R:3 KEmax=23.26679191048647 iter=87268 volume=670.5618179858607 ns_energy=-11.647137731963355 last_walked_iter_clone=87150 energy=-11.647137732008183 stress="0.00823548502277828 -1.8158788638722203e-08 5.377360664518197e-09 -1.8158788638722203e-08 0.008228489908840085 1.9536235817261704e-08 5.377360664518197e-09 1.9536235817261704e-08 0.00421519907240307" pbc="T T T"
H        1.40307756       0.81006721      10.00000000        3       1.00000000       0.00000000       0.00000000       0.00000000       0.00000000       0.00000000       0.00000000
H        4.20923268       0.81006721      10.00000000        3       1.00000000       0.00000000       0.00000000       0.00000000       0.00000000       0.00000000       0.00000000
H        0.00000000       3.24026883      10.00000000        3       1.00000000       0.00000000       0.00000000       0.00000000       0.00000000       0.00000000       0.00000000
H        2.80615512       3.24026883      10.00000000        3       1.00000000       0.00000000       0.00000000       0.00000000       0.00000000       0.00000000       0.00000000
H        0.00000000       1.62013441      12.29121606        2       1.00000000       0.00000000       0.00000000       0.00000000       0.00000000       0.00000000       0.00000000
H        2.80615512       1.62013441      12.29121606        2       1.00000000       0.00000000       0.00000000       0.00000000       0.00000000       0.00000000       0.00000000
H        1.40307756       4.05033604      12.29121606        2       1.00000000       0.00000000       0.00000000       0.00000000       0.00000000       0.00000000       0.00000000
H        4.20923268       4.05033604      12.29121606        2       1.00000000       0.00000000       0.00000000       0.00000000       0.00000000       0.00000000       0.00000000
H        0.00000000       0.00000000      14.58243212        1       1.00000000       0.00000000       0.00000000       0.00000000       0.00000000       0.00000000       0.00000000
H        2.80615512       0.00000000      14.58243212        1       1.00000000       0.00000000       0.00000000       0.00000000       0.00000000       0.00000000       0.00000000
H        1.40307756       2.43020162      14.58243212        1       1.00000000       0.00000000       0.00000000       0.00000000       0.00000000       0.00000000       0.00000000
H        4.20923268       2.43020162      14.58243212        1       1.00000000       0.00000000       0.00000000       0.00000000       0.00000000       0.00000000       0.00000000
H        0.01031244       1.60553187      16.81344891        0       1.00000000      -0.00000379       0.00000244      -0.00000086       0.00000000      -0.00000058       0.00000417
H        2.80236400       1.63315599      16.78912603        0       1.00000000       0.00000069      -0.00000111       0.00000239      -0.00000820       0.00000085      -0.00000880
H        4.21302592       4.06335578      16.78912845        0       1.00000000       0.00000225       0.00000360      -0.00000190       0.00000270       0.00000150      -0.00000677
H        2.79990401       0.01927165      19.01656415        0       1.00000000      -0.00000298      -0.00000128      -0.00000207       0.00000046       0.00000039       0.00000662
H        4.21549627       2.44947174      19.01656338        0       1.00000000      -0.00000175       0.00000209       0.00000098       0.00000421      -0.00000140       0.00000248
H        1.39276823       4.03573275      16.81345034        0       1.00000000       0.00000267      -0.00000328       0.00000072      -0.00000544       0.00000292      -0.00000112
18
Lattice="5.612310241546866 0.0 0.0 0.0 4.860403243099165 0.0 0.0 0.0 24.582432123328676" Properties=species:S:1:pos:R:3:tags:I:1:masses:R:1:momenta:R:3:forces:R:3 KEmax=23.26679191048647 iter=87268 volume=670.5618179858607 ns_energy=-11.647137731963038 last_walked_iter_clone=87232 energy=-11.647137732008183 stress="0.00823548502277828 -1.8158788638722203e-08 5.377360664518197e-09 -1.8158788638722203e-08 0.008228489908840085 1.9536235817261704e-08 5.377360664518197e-09 1.9536235817261704e-08 0.00421519907240307" pbc="T T T"
H        1.40307756       0.81006721      10.00000000        3       1.00000000       0.00000000       0.00000000       0.00000000       0.00000000       0.00000000       0.00000000
H        4.20923268       0.81006721      10.00000000        3       1.00000000       0.00000000       0.00000000       0.00000000       0.00000000       0.00000000       0.00000000
H        0.00000000       3.24026883      10.00000000        3       1.00000000       0.00000000       0.00000000       0.00000000       0.00000000       0.00000000       0.00000000
H        2.80615512       3.24026883      10.00000000        3       1.00000000       0.00000000       0.00000000       0.00000000       0.00000000       0.00000000       0.00000000
H        0.00000000       1.62013441      12.29121606        2       1.00000000       0.00000000       0.00000000       0.00000000       0.00000000       0.00000000       0.00000000
H        2.80615512       1.62013441      12.29121606        2       1.00000000       0.00000000       0.00000000       0.00000000       0.00000000       0.00000000       0.00000000
H        1.40307756       4.05033604      12.29121606        2       1.00000000       0.00000000       0.00000000       0.00000000       0.00000000       0.00000000       0.00000000
H        4.20923268       4.05033604      12.29121606        2       1.00000000       0.00000000       0.00000000       0.00000000       0.00000000       0.00000000       0.00000000
H        0.00000000       0.00000000      14.58243212        1       1.00000000       0.00000000       0.00000000       0.00000000       0.00000000       0.00000000       0.00000000
H        2.80615512       0.00000000      14.58243212        1       1.00000000       0.00000000       0.00000000       0.00000000       0.00000000       0.00000000       0.00000000
H        1.40307756       2.43020162      14.58243212        1       1.00000000       0.00000000       0.00000000       0.00000000       0.00000000       0.00000000       0.00000000
H        4.20923268       2.43020162      14.58243212        1       1.00000000       0.00000000       0.00000000       0.00000000       0.00000000       0.00000000       0.00000000
H        0.01031464       1.60552977      16.81344983        0       1.00000000       0.00000207       0.00000123       0.00000115       0.00000000      -0.00000058       0.00000417
H        2.80236528       1.63315479      16.78912863        0       1.00000000      -0.00000055      -0.00000255      -0.00000436      -0.00000820       0.00000085      -0.00000880
H        4.21302517       4.06335502      16.78912675        0       1.00000000       0.00000037      -0.00000245      -0.00000130       0.00000270       0.00000150      -0.00000677