20
Lattice="5.612310241546866 0.0 0.0 0.0 4.860403243099165 0.0 0.0 0.0 24.582432123328676" Properties=species:S:1:pos:R:3:tags:I:1:masses:R:1:momenta:R:3:forces:R:3 KEmax=25.851991011651638 iter=110974 volume=670.5618179858607 ns_energy=-13.620080613378315 last_walked_iter_clone=110813 energy=-13.620080613390458 stress="0.025725841188134427 1.560945613022929e-08 9.611054035304075e-09 1.560945613022929e-08 0.02572582697112601 7.645576050725051e-09 9.611054035304075e-09 7.645576050725051e-09 0.013287078362943442" pbc="T T F"
H        1.40307756       0.81006721      10.00000000        3       1.00000000       0.00000000       0.00000000       0.00000000       0.00000000       0.00000000       0.00000000
H        4.20923268       0.81006721      10.00000000        3       1.00000000       0.00000000       0.00000000       0.00000000       0.00000000       0.00000000       0.00000000
H        0.00000000       3.24026883      10.00000000        3       1.00000000       0.00000000       0.00000000       0.00000000       0.00000000       0.00000000       0.00000000
H        2.80615512       3.24026883      10.00000000        3       1.00000000       0.00000000       0.00000000       0.00000000       0.00000000       0.00000000       0.00000000
H        0.00000000       1.62013441      12.29121606        2       1.00000000       0.00000000       0.00000000       0.00000000       0.00000000       0.00000000       0.00000000
H        2.80615512       1.62013441      12.29121606        2       1.00000000       0.00000000       0.00000000       0.00000000       0.00000000       0.00000000       0.00000000
H        1.40307756       4.05033604      12.29121606        2       1.00000000       0.00000000       0.00000000       0.00000000       0.00000000       0.00000000       0.00000000
H        4.20923268       4.05033604      12.29121606        2       1.00000000       0.00000000       0.00000000       0.00000000       0.00000000       0.00000000       0.00000000
H        0.00000000       0.00000000      14.58243212        1       1.00000000       0.00000000       0.00000000       0.00000000       0.00000000       0.00000000       0.00000000
H        2.80615512       0.00000000      14.58243212        1       1.00000000       0.00000000       0.00000000       0.00000000       0.00000000       0.00000000       0.00000000
H        1.40307756       2.43020162      14.58243212        1       1.00000000       0.00000000       0.00000000       0.00000000       0.00000000       0.00000000       0.00000000
H        4.20923268       2.43020162      14.58243212        1       1.00000000       0.00000000       0.00000000       0.00000000       0.00000000       0.00000000       0.00000000
H        0.00000038       3.24026890      16.81070520        0       1.00000000       0.00000133      -0.00000021       0.00000049      -0.00000096      -0.00000044      -0.00000231
H       -0.00000122       1.62013603       7.77136718        0       1.00000000      -0.00000021       0.00000014       0.00000068      -0.00000131      -0.00000264       0.00000021
H        2.80615524       3.24026894      16.81070646        0       1.00000000      -0.00000303       0.00000049      -0.00000125       0.00000090       0.00000261      -0.00000295
H        1.40307664       4.05033585       7.77136638        0       1.00000000       0.00000030      -0.00000093       0.00000007      -0.00000075       0.00000428       0.00000019
H        1.40307763       0.81006685      16.81070484        0       1.00000000       0.00000051       0.00000102      -0.00000102      -0.00000006      -0.00000014      -0.00000161
H        2.80615381       1.62013453       7.77136812        0       1.00000000      -0.00000209       0.00000003      -0.00000061       0.00000046      -0.00000224       0.00000301
H        4.20923217       0.81006746      16.81070535        0       1.00000000      -0.00000128       0.00000018       0.00000070      -0.00000215      -0.00000325      -0.00000023
H        4.20923154       4.05033779       7.77136723        0       1.00000000       0.00000035      -0.00000026      -0.00000033       0.00000040       0.00000024       0.00000127
20
Lattice="5.612310241546866 0.0 0.0 0.0 4.860403243099165 0.0 0.0 0.0 24.582432123328676" Properties=species:S:1:pos:R:3:tags:I:1:masses:R:1:momenta:R:3:forces:R:3 KEmax=25.851991011651638 iter=110974 volume=670.5618179858607 ns_energy=-13.620080613378196 last_walked_iter_clone=110910 energy=-13.620080613390458 stress="0.025725841188134427 1.560945613022929e-08 9.611054035304075e-09 1.560945613022929e-08 0.02572582697112601 7.645576050725051e-09 9.611054035304075e-09 7.645576050725051e-09 0.013287078362943442" pbc="T T F"
H        1.40307756       0.81006721      10.00000000        3       1.00000000       0.00000000       0.00000000       0.00000000       0.00000000       0.00000000       0.00000000
H        4.20923268       0.81006721      10.00000000        3       1.00000000       0.00000000       0.00000000       0.00000000       0.00000000       0.00000000       0.00000000
H        0.00000000       3.24026883      10.00000000        3       1.00000000       0.00000000       0.00000000       0.00000000       0.00000000       0.00000000       0.00000000
H        2.80615512       3.24026883      10.00000000        3       1.00000000       0.00000000       0.00000000       0.00000000       0.00000000       0.00000000       0.00000000
H        0.00000000       1.62013441      12.29121606        2       1.00000000       0.00000000       0.00000000       0.00000000       0.00000000       0.00000000       0.00000000
H        2.80615512       1.62013441      12.29121606        2       1.00000000       0.00000000       0.00000000       0.00000000       0.00000000       0.00000000       0.00000000
H        1.40307756       4.05033604      12.29121606        2       1.00000000       0.00000000       0.00000000       0.00000000       0.00000000       0.00000000       0.00000000
H        4.20923268       4.05033604      12.29121606        2       1.00000000       0.00000000       0.00000000       0.00000000       0.00000000       0.00000000       0.00000000
H        0.00000000       0.00000000      14.58243212        1       1.00000000       0.00000000       0.00000000       0.00000000       0.00000000       0.00000000       0.00000000
H        2.80615512       0.00000000      14.58243212        1       1.00000000       0.00000000       0.00000000       0.00000000       0.00000000       0.00000000       0.00000000
H        1.40307756       2.43020162      14.58243212        1       1.00000000       0.00000000       0.00000000       0.00000000       0.00000000       0.00000000       0.00000000
H        4.20923268       2.43020162      14.58243212        1       1.00000000       0.00000000       0.00000000       0.00000000       0.00000000       0.00000000       0.00000000
H        5.61231094       3.24027054      16.81070475        0       1.00000000      -0.00000046       0.00000013      -0.00000289      -0.00000096      -0.00000044      -0.00000231
H        5.61230950       1.62013403       7.77136713        0       1.00000000      -0.00000022       0.00000170      -0.00000018      -0.00000131      -0.00000264       0.00000021
H        2.80615745       3.24026971      16.81070580        0       1.00000000      -0.00000117       0.00000075       0.00000037       0.00000090       0.00000261      -0.00000295
H        1.40307675       4.05033673       7.77136758        0       1.00000000       0.00000058       0.00000164       0.00000075      -0.00000075       0.00000428       0.00000019
H        1.40307806       0.81006841      16.81070531        0       1.00000000      -0.00000116       0.00000071       0.00000006      -0.00000006      -0.00000014      -0.00000161
H        2.80615440       1.62013366       7.77136710        0       1.00000000       0.00000036      -0.00000058      -0.00000037       0.00000046      -0.00000224       0.00000301
H        4.20923340       0.81006855      16.81070558        0       1.00000000      -0.00000024      -0.00000008      -0.00000003      -0.00000215      -0.00000325      -0.00000023
H        4.20923255       4.05033635       7.77136655        0       1.00000000       0.00000006       0.00000016      -0.00000094       0.00000040       0.00000024       0.00000127
20
Lattice="5.612310241546866 0.0 0.0 0.0 4.860403243099165 0.0 0.0 0.0 24.582432123328676" Properties=species:S:1:pos:R:3:tags:I:1:masses:R:1:momenta:R:3:forces:R:3 KEmax=25.851991011651638 iter=110974 volume=670.5618179858607 ns_energy=-13.620080613378656 last_walked_iter_clone=110966 energy=-13.620080613390458 stress="0.025725841188134427 1.560945613022929e-08 9.611054035304075e-09 1.560945613022929e-08 0.02572582697112601 7.645576050725051e-09 9.611054035304075e-09 7.645576050725051e-09 0.013287078362943442" pbc="T T F"
H        1.40307756       0.81006721      10.00000000        3       1.00000000       0.00000000       0.00000000       0.00000000       0.00000000       0.00000000       0.00000000
H        4.20923268       0.81006721      10.00000000        3       1.00000000       0.00000000       0.00000000       0.00000000       0.00000000       0.00000000       0.00000000
H        0.00000000       3.24026883      10.00000000        3       1.00000000       0.00000000       0.00000000       0.00000000       0.00000000       0.00000000       0.00000000
H        2.80615512       3.24026883      10.00000000        3       1.00000000       0.00000000       0.00000000       0.00000000       0.00000000       0.00000000       0.00000000
H        0.00000000       1.62013441      12.29121606        2       1.00000000       0.00000000       0.00000000       0.00000000       0.00000000       0.00000000       0.00000000
H        2.80615512       1.62013441      12.29121606        2       1.00000000       0.00000000       0.00000000       0.00000000       0.00000000       0.00000000       0.00000000
H        1.40307756       4.05033604      12.29121606        2       1.00000000       0.00000000       0.00000000       0.00000000       0.00000000       0.00000000       0.00000000
H        4.20923268       4.05033604      12.29121606        2       1.00000000       0.00000000       0.00000000       0.00000000       0.00000000       0.00000000       0.00000000
H        0.00000000       0.00000000      14.58243212        1       1.00000000       0.00000000       0.00000000       0.00000000       0.00000000       0.00000000       0.00000000
H        2.80615512       0.00000000      14.58243212        1       1.00000000       0.00000000       0.00000000       0.00000000       0.00000000       0.00000000       0.00000000
H        1.40307756       2.43020162      14.58243212        1       1.00000000       0.00000000       0.00000000       0.00000000       0.00000000       0.00000000       0.00000000
H        4.20923268       2.43020162      14.58243212        1       1.00000000       0.00000000       0.00000000       0.00000000       0.00000000       0.00000000       0.00000000
H        5.61230994       3.24026843      16.81070607        0       1.00000000       0.00000027       0.00000043       0.00000056      -0.00000096      -0.00000044      -0.00000231
H       -0.00000174       1.62013386       7.77136690        0       1.00000000       0.00000154       0.00000169      -0.00000076      -0.00000131      -0.00000264       0.00000021
H        2.80615509       3.24026702      16.81070602        0       1.00000000      -0.00000161       0.00000057       0.00000109       0.00000090       0.00000261      -0.00000295
H        1.40307652       4.05033489       7.77136711        0       1.00000000      -0.00000137       0.00000127       0.00000014      -0.00000075       0.00000428       0.00000019
H        1.40307743       0.81006657      16.81070490        0       1.00000000       0.00000082      -0.00000208      -0.00000043      -0.00000006      -0.00000014      -0.00000161
H        2.80615407       1.62013455       7.77136746        0       1.00000000      -0.00000066       0.00000144      -0.00000067       0.00000046      -0.00000224       0.00000301
H        4.20923247       0.81006668      16.81070449        0       1.00000000       0.00000000      -0.00000008      -0.00000084      -0.00000215      -0.00000325      -0.00000023
H        4.20923168       4.05033651       7.77136751        0       1.00000000       0.00000033       0.00000061       0.00000161       0.00000040       0.00000024       0.00000127
20
Lattice="5.612310241546866 0.0 0.0 0.0 4.860403243099165 0.0 0.0 0.0 24.582432123328676" Properties=species:S:1:pos:R:3:tags:I:1:masses:R:1:momenta:R:3:forces:R:3 KEmax=25.851991011651638 iter=110974 volume=670.5618179858607 ns_energy=-13.620080613378164 last_walked_iter_clone=110645 energy=-13.620080613390458 stress="0.025725841188134427 1.560945613022929e-08 9.611054035304075e-09 1.560945613022929e-08 0.02572582697112601 7.645576050725051e-09 9.611054035304075e-09 7.645576050725051e-09 0.013287078362943442" pbc="T T F"
H        1.40307756       0.81006721      10.00000000        3       1.00000000       0.00000000       0.00000000       0.00000000       0.00000000       0.00000000       0.00000000
H        4.20923268       0.81006721      10.00000000        3       1.00000000       0.00000000       0.00000000       0.00000000       0.00000000       0.00000000       0.00000000
H        0.00000000       3.24026883      10.00000000        3       1.00000000       0.00000000       0.00000000       0.00000000       0.00000000       0.00000000       0.00000000
H        2.80615512       3.24026883      10.00000000        3       1.00000000       0.00000000       0.00000000       0.00000000       0.00000000       0.00000000       0.00000000
H        0.00000000       1.62013441      12.29121606        2       1.00000000       0.00000000       0.00000000       0.00000000       0.00000000       0.00000000       0.00000000
H        2.80615512       1.62013441      12.29121606        2       1.00000000       0.00000000       0.00000000       0.00000000       0.00000000       0.00000000       0.00000000
H        1.40307756       4.05033604      12.29121606        2       1.00000000       0.00000000       0.00000000       0.00000000       0.00000000       0.00000000       0.00000000
H        4.20923268       4.05033604      12.29121606        2       1.00000000       0.00000000       0.00000000       0.00000000       0.00000000       0.00000000       0.00000000
H        0.00000000       0.00000000      14.58243212        1       1.00000000       0.00000000       0.00000000       0.00000000       0.00000000       0.00000000       0.00000000
H        2.80615512       0.00000000      14.58243212        1       1.00000000       0.00000000       0.00000000       0.00000000       0.00000000       0.00000000       0.00000000
H        1.40307756       2.43020162      14.58243212        1       1.00000000       0.00000000       0.00000000       0.00000000       0.00000000       0.00000000       0.00000000
H        4.20923268       2.43020162      14.58243212        1       1.00000000       0.00000000       0.00000000       0.00000000       0.00000000       0.00000000       0.00000000
H        0.00000116       3.24026794      16.81070468        0       1.00000000      -0.00000094       0.00000211      -0.00000076      -0.00000096      -0.00000044      -0.00000231
H        0.00000074       1.62013451       7.77136740        0       1.00000000       0.00000090       0.00000117      -0.00000031      -0.00000131      -0.00000264       0.00000021
H        2.80615545       3.24026792      16.81070496        0       1.00000000      -0.00000208      -0.00000052       0.00000036       0.00000090       0.00000261      -0.00000295
H        1.40307744       4.05033665       7.77136670        0       1.00000000      -0.00000001       0.00000101       0.00000041      -0.00000075       0.00000428       0.00000019
H        1.40307772       0.81006691      16.81070610        0       1.00000000      -0.00000001       0.00000004       0.00000080      -0.00000006      -0.00000014      -0.00000161
H        2.80615587       1.62013471       7.77136695        0       1.00000000      -0.00000048       0.00000045      -0.00000291       0.00000046      -0.00000224       0.00000301
H        4.20923370       0.81006606      16.81070520        0       1.00000000       0.00000052      -0.00000071      -0.00000022      -0.00000215      -0.00000325      -0.00000023
H        4.20923348       4.05033599       7.77136748        0       1.00000000      -0.00000179      -0.00000230       0.00000137       0.00000040       0.00000024       0.00000127
20
Lattice="5.612310241546866 0.0 0.0 0.0 4.860403243099165 0.0 0.0 0.0 24.582432123328676" Properties=species:S:1:pos:R:3:tags:I:1:masses:R:1:momenta:R:3:forces:R:3 KEmax=25.851991011651638 iter=110974 volume=670.5618179858607 ns_energy=-13.620080613378237 last_walked_iter_clone=110884 energy=-13.620080613390458 stress="0.025725841188134427 1.560945613022929e-08 9.611054035304075e-09 1.560945613022929e-08 0.02572582697112601 7.645576050725051e-09 9.611054035304075e-09 7.645576050725051e-09 0.013287078362943442" pbc="T T F"
H        1.40307756       0.81006721      10.00000000        3       1.00000000       0.00000000       0.00000000       0.00000000       0.00000000       0.00000000       0.00000000
H        4.20923268       0.81006721      10.00000000        3       1.00000000       0.00000000       0.00000000       0.00000000       0.00000000       0.00000000       0.00000000
H        0.00000000       3.24026883      10.00000000        3       1.00000000       0.00000000       0.00000000       0.00000000       0.00000000       0.00000000       0.00000000
H        2.80615512       3.24026883      10.00000000        3       1.00000000       0.00000000       0.00000000       0.00000000       0.00000000       0.00000000       0.00000000
H        0.00000000       1.62013441      12.29121606        2       1.00000000       0.00000000       0.00000000       0.00000000       0.00000000       0.00000000       0.00000000
H        2.80615512       1.62013441      12.29121606        2       1.00000000       0.00000000       0.00000000       0.00000000       0.00000000       0.00000000       0.00000000
H        1.40307756       4.05033604      12.29121606        2       1.00000000       0.00000000       0.00000000       0.00000000       0.00000000       0.00000000       0.00000000
H        4.20923268       4.05033604      12.29121606        2       1.00000000       0.00000000       0.00000000       0.00000000       0.00000000       0.00000000       0.00000000
H        0.00000000       0.00000000      14.58243212        1       1.00000000       0.00000000       0.00000000       0.00000000       0.00000000       0.00000000       0.00000000
H        2.80615512       0.00000000      14.58243212        1       1.00000000       0.00000000       0.00000000       0.00000000       0.00000000       0.00000000       0.00000000
H        1.40307756       2.43020162      14.58243212        1       1.00000000       0.00000000       0.00000000       0.00000000       0.00000000       0.00000000       0.00000000
H        4.20923268       2.43020162      14.58243212        1       1.00000000       0.00000000       0.00000000       0.00000000       0.00000000       0.00000000       0.00000000
H       -0.00000101       3.24027045      16.81070474        0       1.00000000      -0.00000081      -0.00000026      -0.00000035      -0.00000096      -0.00000044      -0.00000231
H       -0.00000070       1.62013409       7.77136686        0       1.00000000      -0.00000154       0.00000123       0.00000168      -0.00000131      -0.00000264       0.00000021
H        2.80615418       3.24026932      16.81070383        0       1.00000000       0.00000058      -0.00000093       0.00000030       0.00000090       0.00000261      -0.00000295
H        1.40307708       4.05033633       7.77136716        0       1.00000000      -0.00000074      -0.00000133       0.00000065      -0.00000075       0.00000428       0.00000019
H        1.40307636       0.81006849      16.81070600        0       1.00000000      -0.00000040       0.00000066      -0.00000123      -0.00000006      -0.00000014      -0.00000161
H        2.80615305       1.62013431       7.77136726        0       1.00000000       0.00000147      -0.00000006       0.00000131       0.00000046      -0.00000224       0.00000301
H        4.20923150       0.81006822      16.81070580        0       1.00000000       0.00000040       0.00000027      -0.00000005      -0.00000215      -0.00000325      -0.00000023
H        4.20923142       4.05033667       7.77136743        0       1.00000000      -0.00000198      -0.00000056       0.00000012       0.00000040       0.00000024       0.00000127
20
Lattice="5.612310241546866 0.0 0.0 0.0 4.860403243099165 0.0 0.0 0.0 24.582432123328676" Properties=species:S:1:pos:R:3:tags:I:1:masses:R:1:momenta:R:3:forces:R:3 KEmax=25.851991011651638 iter=110974 volume=670.5618179858607 ns_energy=-13.620080613378542 last_walked_iter_clone=110789 energy=-13.620080613390458 stress="0.025725841188134427 1.560945613022929e-08 9.611054035304075e-09 1.560945613022929e-08 0.02572582697112601 7.645576050725051e-09 9.611054035304075e-09 7.645576050725051e-09 0.013287078362943442" pbc="T T F"
H        1.40307756       0.81006721      10.00000000        3       1.00000000       0.00000000       0.00000000       0.00000000       0.00000000       0.00000000       0.00000000
H        4.20923268       0.81006721      10.00000000        3       1.00000000       0.00000000       0.00000000       0.00000000       0.00000000       0.00000000       0.00000000
H        0.00000000       3.24026883      10.00000000        3       1.00000000       0.00000000       0.00000000       0.00000000       0.00000000       0.00000000       0.00000000
H        2.80615512       3.24026883      10.00000000        3       1.00000000       0.00000000       0.00000000       0.00000000       0.00000000       0.00000000       0.00000000
H        0.00000000       1.62013441      12.29121606        2       1.00000000       0.00000000       0.00000000       0.00000000       0.00000000       0.00000000       0.00000000
H        2.80615512       1.62013441      12.29121606        2       1.00000000       0.00000000       0.00000000       0.00000000       0.00000000       0.00000000       0.00000000
H        1.40307756       4.05033604      12.29121606        2       1.00000000       0.00000000       0.00000000       0.00000000       0.00000000       0.00000000       0.00000000
H        4.20923268       4.05033604      12.29121606        2       1.00000000       0.00000000       0.00000000       0.00000000       0.00000000       0.00000000       0.00000000
H        0.00000000       0.00000000      14.58243212        1       1.00000000       0.00000000       0.00000000       0.00000000       0.00000000       0.00000000       0.00000000
H        2.80615512       0.00000000      14.58243212        1       1.00000000       0.00000000       0.00000000       0.00000000       0.00000000       0.00000000       0.00000000
H        1.40307756       2.43020162      14.58243212        1       1.00000000       0.00000000       0.00000000       0.00000000       0.00000000       0.00000000       0.00000000
H        4.20923268       2.43020162      14.58243212        1       1.00000000       0.00000000       0.00000000       0.00000000       0.00000000       0.00000000       0.00000000
H        5.61231173       3.24026866      16.81070506        0       1.00000000      -0.00000071      -0.00000073       0.00000024      -0.00000096      -0.00000044      -0.00000231
H       -0.00000130       1.62013430       7.77136759        0       1.00000000       0.00000037      -0.00000195       0.00000116      -0.00000131      -0.00000264       0.00000021
H        2.80615734       3.24026832      16.81070644        0       1.00000000      -0.00000094       0.00000093       0.00000039       0.00000090       0.00000261      -0.00000295
H        1.40307801       4.05033641       7.77136706        0       1.00000000      -0.00000079      -0.00000131      -0.00000085      -0.00000075       0.00000428       0.00000019
H        1.40307908       0.81006767      16.81070460        0       1.00000000      -0.00000102       0.00000108       0.00000052      -0.00000006      -0.00000014      -0.00000161
H        2.80615410       1.62013445       7.77136676        0       1.00000000      -0.00000029      -0.00000012       0.00000053       0.00000046      -0.00000224       0.00000301
H        4.20923399       0.81006591      16.81070457        0       1.00000000       0.00000013      -0.00000035       0.00000056      -0.00000215      -0.00000325      -0.00000023
H        4.20923261       4.05033629       7.77136791        0       1.00000000      -0.00000244       0.00000034       0.00000114       0.00000040       0.00000024       0.00000127
20
Lattice="5.612310241546866 0.0 0.0 0.0 4.860403243099165 0.0 0.0 0.0 24.582432123328676" Properties=species:S:1:pos:R:3:tags:I:1:masses:R:1:momenta:R:3:forces:R:3 KEmax=25.851991011651638 iter=110974 volume=670.5618179858607 ns_energy=-13.620080613378306 last_walked_iter_clone=110959 energy=-13.620080613390458 stress="0.025725841188134427 1.560945613022929e-08 9.611054035304075e-09 1.560945613022929e-08 0.02572582697112601 7.645576050725051e-09 9.611054035304075e-09 7.645576050725051e-09 0.013287078362943442" pbc="T T F"
H        1.40307756       0.81006721      10.00000000        3       1.00000000       0.00000000       0.00000000       0.00000000       0.00000000       0.00000000       0.00000000
H        4.20923268       0.81006721      10.00000000        3       1.00000000       0.00000000       0.00000000       0.00000000       0.00000000       0.00000000       0.00000000
H        0.00000000       3.24026883      10.00000000        3       1.00000000       0.00000000       0.00000000       0.00000000       0.00000000       0.00000000       0.00000000
H        2.80615512       3.24026883      10.00000000        3       1.00000000       0.00000000       0.00000000       0.00000000       0.00000000       0.00000000       0.00000000
H        0.00000000       1.62013441      12.29121606        2       1.00000000       0.00000000       0.00000000       0.00000000       0.00000000       0.00000000       0.00000000
H        2.80615512       1.62013441      12.29121606        2       1.00000000       0.00000000       0.00000000       0.00000000       0.00000000       0.00000000       0.00000000
H        1.40307756       4.05033604      12.29121606        2       1.00000000       0.00000000       0.00000000       0.00000000       0.00000000       0.00000000       0.00000000
H        4.20923268       4.05033604      12.29121606        2       1.00000000       0.00000000       0.00000000       0.00000000       0.00000000       0.00000000       0.00000000
H        0.00000000       0.00000000      14.58243212        1       1.00000000       0.00000000       0.00000000       0.00000000       0.00000000       0.00000000       0.00000000
H        2.80615512       0.00000000      14.58243212        1       1.00000000       0.00000000       0.00000000       0.00000000       0.00000000       0.00000000       0.00000000
H        1.40307756       2.43020162      14.58243212        1       1.00000000       0.00000000       0.00000000       0.00000000       0.00000000       0.00000000       0.00000000
H        4.20923268       2.43020162      14.58243212        1       1.00000000       0.00000000       0.00000000       0.00000000       0.00000000       0.00000000       0.00000000
H        5.61231008       3.24026804      16.81070446        0       1.00000000       0.00000127       0.00000017      -0.00000096      -0.00000096      -0.00000044      -0.00000231
H        5.61231034       1.62013504       7.77136671        0       1.00000000      -0.00000012      -0.00000004      -0.00000175      -0.00000131      -0.00000264       0.00000021
H        2.80615489       3.24026888      16.81070514        0       1.00000000       0.00000048      -0.00000088      -0.00000097       0.00000090       0.00000261      -0.00000295
H        1.40307690       4.05033667       7.77136731        0       1.00000000      -0.00000052       0.00000045       0.00000122      -0.00000075       0.00000428       0.00000019
H        1.40307743       0.81006674      16.81070465        0       1.00000000       0.00000022      -0.00000030      -0.00000078      -0.00000006      -0.00000014      -0.00000161
H        2.80615532       1.62013497       7.77136729        0       1.00000000       0.00000087      -0.00000028       0.00000224       0.00000046      -0.00000224       0.00000301
H        4.20923243       0.81006693      16.81070296        0       1.00000000       0.00000023       0.00000139       0.00000068      -0.00000215      -0.00000325      -0.00000023
H        4.20923159       4.05033540       7.77136752        0       1.00000000       0.00000053      -0.00000278      -0.00000034       0.00000040       0.00000024       0.00000127
20
Lattice="5.612310241546866 0.0 0.0 0.0 4.860403243099165 0.0 0.0 0.0 24.582432123328676" Properties=species:S:1:pos:R:3:tags:I:1:masses:R:1:momenta:R:3:forces:R:3 KEmax=25.851991011651638 iter=110974 volume=670.5618179858607 ns_energy=-13.620080613378411 last_walked_iter_clone=110812 energy=-13.620080613390458 stress="0.025725841188134427 1.560945613022929e-08 9.611054035304075e-09 1.560945613022929e-08 0.02572582697112601 7.645576050725051e-09 9.611054035304075e-09 7.645576050725051e-09 0.013287078362943442" pbc="T T F"
H        1.40307756       0.81006721      10.00000000        3       1.00000000       0.00000000       0.00000000       0.00000000       0.00000000       0.00000000       0.00000000