20
Lattice="5.612310241546866 0.0 0.0 0.0 4.860403243099165 0.0 0.0 0.0 24.582432123328676" Properties=species:S:1:pos:R:3:tags:I:1:masses:R:1:momenta:R:3:forces:R:3 KEmax=25.851991011651638 iter=84810 volume=670.5618179858607 ns_energy=-13.620080611702168 last_walked_iter_clone=84790 energy=-13.620080612629094 stress="0.025725725681408015 5.6360904984800745e-08 -1.3082505907304133e-07 5.6360904984800745e-08 0.025725643398711796 -2.095319256279957e-07 -1.3082505907304133e-07 -2.095319256279957e-07 0.013286581069537513" pbc="T T F"
H        1.40307756       0.81006721      10.00000000        3       1.00000000       0.00000000       0.00000000       0.00000000       0.00000000       0.00000000       0.00000000
H        4.20923268       0.81006721      10.00000000        3       1.00000000       0.00000000       0.00000000       0.00000000       0.00000000       0.00000000       0.00000000
H        0.00000000       3.24026883      10.00000000        3       1.00000000       0.00000000       0.00000000       0.00000000       0.00000000       0.00000000       0.00000000
H        2.80615512       3.24026883      10.00000000        3       1.00000000       0.00000000       0.00000000       0.00000000       0.00000000       0.00000000       0.00000000
H        0.00000000       1.62013441      12.29121606        2       1.00000000       0.00000000       0.00000000       0.00000000       0.00000000       0.00000000       0.00000000
H        2.80615512       1.62013441      12.29121606        2       1.00000000       0.00000000       0.00000000       0.00000000       0.00000000       0.00000000       0.00000000
H        1.40307756       4.05033604      12.29121606        2       1.00000000       0.00000000       0.00000000       0.00000000       0.00000000       0.00000000       0.00000000
H        4.20923268       4.05033604      12.29121606        2       1.00000000       0.00000000       0.00000000       0.00000000       0.00000000       0.00000000       0.00000000
H        0.00000000       0.00000000      14.58243212        1       1.00000000       0.00000000       0.00000000       0.00000000       0.00000000       0.00000000       0.00000000
H        2.80615512       0.00000000      14.58243212        1       1.00000000       0.00000000       0.00000000       0.00000000       0.00000000       0.00000000       0.00000000
H        1.40307756       2.43020162      14.58243212        1       1.00000000       0.00000000       0.00000000       0.00000000       0.00000000       0.00000000       0.00000000
H        4.20923268       2.43020162      14.58243212        1       1.00000000       0.00000000       0.00000000       0.00000000       0.00000000       0.00000000       0.00000000
H        0.00000524       3.24026471      16.81070602        0       1.00000000      -0.00000989       0.00000635      -0.00000207       0.00000930      -0.00000042       0.00000883
H        0.00000111       1.62013294       7.77136122        0       1.00000000      -0.00000269      -0.00001517       0.00000066      -0.00004573      -0.00001434      -0.00000706
H        2.80615124       3.24026304      16.81070849        0       1.00000000      -0.00000896      -0.00000758      -0.00001734      -0.00000923       0.00001177      -0.00000081
H        1.40308509       4.05032980       7.77136514        0       1.00000000       0.00000817      -0.00000657       0.00001131       0.00000987      -0.00002228       0.00000939
H        1.40308313       0.81005995      16.81069999        0       1.00000000       0.00000186       0.00000158       0.00000966      -0.00000069      -0.00001394       0.00001379
H        2.80615189       1.62013124       7.77138275        0       1.00000000      -0.00001376      -0.00001064       0.00000131       0.00003446       0.00001287      -0.00001039
H        4.20924081       0.81006608      16.81070385        0       1.00000000      -0.00000002       0.00000149       0.00000513       0.00000159       0.00000959       0.00000797
H        4.20923515       4.05032668       7.77136274        0       1.00000000       0.00000375      -0.00000545       0.00000766      -0.00001208       0.00000763      -0.00000456
20
Lattice="5.612310241546866 0.0 0.0 0.0 4.860403243099165 0.0 0.0 0.0 24.582432123328676" Properties=species:S:1:pos:R:3:tags:I:1:masses:R:1:momenta:R:3:forces:R:3 KEmax=25.851991011651638 iter=84810 volume=670.5618179858607 ns_energy=-13.620080611673975 last_walked_iter_clone=84713 energy=-13.620080612629094 stress="0.025725725681408015 5.6360904984800745e-08 -1.3082505907304133e-07 5.6360904984800745e-08 0.025725643398711796 -2.095319256279957e-07 -1.3082505907304133e-07 -2.095319256279957e-07 0.013286581069537513" pbc="T T F"
H        1.40307756       0.81006721      10.00000000        3       1.00000000       0.00000000       0.00000000       0.00000000       0.00000000       0.00000000       0.00000000
H        4.20923268       0.81006721      10.00000000        3       1.00000000       0.00000000       0.00000000       0.00000000       0.00000000       0.00000000       0.00000000
H        0.00000000       3.24026883      10.00000000        3       1.00000000       0.00000000       0.00000000       0.00000000       0.00000000       0.00000000       0.00000000
H        2.80615512       3.24026883      10.00000000        3       1.00000000       0.00000000       0.00000000       0.00000000       0.00000000       0.00000000       0.00000000
H        0.00000000       1.62013441      12.29121606        2       1.00000000       0.00000000       0.00000000       0.00000000       0.00000000       0.00000000       0.00000000
H        2.80615512       1.62013441      12.29121606        2       1.00000000       0.00000000       0.00000000       0.00000000       0.00000000       0.00000000       0.00000000
H        1.40307756       4.05033604      12.29121606        2       1.00000000       0.00000000       0.00000000       0.00000000       0.00000000       0.00000000       0.00000000
H        4.20923268       4.05033604      12.29121606        2       1.00000000       0.00000000       0.00000000       0.00000000       0.00000000       0.00000000       0.00000000
H        0.00000000       0.00000000      14.58243212        1       1.00000000       0.00000000       0.00000000       0.00000000       0.00000000       0.00000000       0.00000000
H        2.80615512       0.00000000      14.58243212        1       1.00000000       0.00000000       0.00000000       0.00000000       0.00000000       0.00000000       0.00000000
H        1.40307756       2.43020162      14.58243212        1       1.00000000       0.00000000       0.00000000       0.00000000       0.00000000       0.00000000       0.00000000
H        4.20923268       2.43020162      14.58243212        1       1.00000000       0.00000000       0.00000000       0.00000000       0.00000000       0.00000000       0.00000000
H        0.00000545       3.24026078      16.81071355        0       1.00000000      -0.00000865       0.00000257      -0.00000228       0.00000930      -0.00000042       0.00000883
H        0.00000836       1.62014352       7.77136180        0       1.00000000       0.00000145       0.00000818       0.00000116      -0.00004573      -0.00001434      -0.00000706
H        2.80615784       3.24025925      16.81071211        0       1.00000000      -0.00001201       0.00001343       0.00001671      -0.00000923       0.00001177      -0.00000081
H        1.40307646       4.05034676       7.77136514        0       1.00000000       0.00000601       0.00001904       0.00000368       0.00000987      -0.00002228       0.00000939
H        1.40307738       0.81006103      16.81069737        0       1.00000000      -0.00000123      -0.00001256      -0.00000093      -0.00000069      -0.00001394       0.00001379
H        2.80616335       1.62014155       7.77136526        0       1.00000000      -0.00001200       0.00000633       0.00000547       0.00003446       0.00001287      -0.00001039
H        4.20922696       0.81006198      16.81069383        0       1.00000000      -0.00000055      -0.00000339       0.00000043       0.00000159       0.00000959       0.00000797
H        4.20923266       4.05034499       7.77136377        0       1.00000000       0.00000535      -0.00000270       0.00001187      -0.00001208       0.00000763      -0.00000456
20
Lattice="5.612310241546866 0.0 0.0 0.0 4.860403243099165 0.0 0.0 0.0 24.582432123328676" Properties=species:S:1:pos:R:3:tags:I:1:masses:R:1:momenta:R:3:forces:R:3 KEmax=25.851991011651638 iter=84810 volume=670.5618179858607 ns_energy=-13.62008061169869 last_walked_iter_clone=84710 energy=-13.620080612629094 stress="0.025725725681408015 5.6360904984800745e-08 -1.3082505907304133e-07 5.6360904984800745e-08 0.025725643398711796 -2.095319256279957e-07 -1.3082505907304133e-07 -2.095319256279957e-07 0.013286581069537513" pbc="T T F"
H        1.40307756       0.81006721      10.00000000        3       1.00000000       0.00000000       0.00000000       0.00000000       0.00000000       0.00000000       0.00000000
H        4.20923268       0.81006721      10.00000000        3       1.00000000       0.00000000       0.00000000       0.00000000       0.00000000       0.00000000       0.00000000
H        0.00000000       3.24026883      10.00000000        3       1.00000000       0.00000000       0.00000000       0.00000000       0.00000000       0.00000000       0.00000000
H        2.80615512       3.24026883      10.00000000        3       1.00000000       0.00000000       0.00000000       0.00000000       0.00000000       0.00000000       0.00000000
H        0.00000000       1.62013441      12.29121606        2       1.00000000       0.00000000       0.00000000       0.00000000       0.00000000       0.00000000       0.00000000
H        2.80615512       1.62013441      12.29121606        2       1.00000000       0.00000000       0.00000000       0.00000000       0.00000000       0.00000000       0.00000000
H        1.40307756       4.05033604      12.29121606        2       1.00000000       0.00000000       0.00000000       0.00000000       0.00000000       0.00000000       0.00000000
H        4.20923268       4.05033604      12.29121606        2       1.00000000       0.00000000       0.00000000       0.00000000       0.00000000       0.00000000       0.00000000
H        0.00000000       0.00000000      14.58243212        1       1.00000000       0.00000000       0.00000000       0.00000000       0.00000000       0.00000000       0.00000000
H        2.80615512       0.00000000      14.58243212        1       1.00000000       0.00000000       0.00000000       0.00000000       0.00000000       0.00000000       0.00000000
H        1.40307756       2.43020162      14.58243212        1       1.00000000       0.00000000       0.00000000       0.00000000       0.00000000       0.00000000       0.00000000
H        4.20923268       2.43020162      14.58243212        1       1.00000000       0.00000000       0.00000000       0.00000000       0.00000000       0.00000000       0.00000000
H        0.00000694       3.24026502      16.81070019        0       1.00000000      -0.00000605       0.00001504      -0.00000377       0.00000930      -0.00000042       0.00000883
H        5.61230756       1.62012691       7.77136151        0       1.00000000      -0.00000204       0.00001237       0.00000577      -0.00004573      -0.00001434      -0.00000706
H        2.80615559       3.24027509      16.81069932        0       1.00000000      -0.00001236       0.00001015       0.00000974      -0.00000923       0.00001177      -0.00000081
H        1.40308177       4.05032830       7.77137078        0       1.00000000       0.00000771      -0.00000301      -0.00000368       0.00000987      -0.00002228       0.00000939
H        1.40307461       0.81007411      16.81070441        0       1.00000000      -0.00000780      -0.00000685      -0.00000370      -0.00000069      -0.00001394       0.00001379
H        2.80615359       1.62012746       7.77136308        0       1.00000000       0.00001125       0.00000616       0.00000097       0.00003446       0.00001287      -0.00001039
H        4.20923158       0.81005885      16.81070799        0       1.00000000      -0.00001364      -0.00000738       0.00000419       0.00000159       0.00000959       0.00000797
H        4.20923044       4.05032952       7.77135737        0       1.00000000      -0.00000568       0.00001857       0.00000346      -0.00001208       0.00000763      -0.00000456
20
Lattice="5.612310241546866 0.0 0.0 0.0 4.860403243099165 0.0 0.0 0.0 24.582432123328676" Properties=species:S:1:pos:R:3:tags:I:1:masses:R:1:momenta:R:3:forces:R:3 KEmax=25.851991011651638 iter=84810 volume=670.5618179858607 ns_energy=-13.620080611776785 last_walked_iter_clone=84559 energy=-13.620080612629094 stress="0.025725725681408015 5.6360904984800745e-08 -1.3082505907304133e-07 5.6360904984800745e-08 0.025725643398711796 -2.095319256279957e-07 -1.3082505907304133e-07 -2.095319256279957e-07 0.013286581069537513" pbc="T T F"
H        1.40307756       0.81006721      10.00000000        3       1.00000000       0.00000000       0.00000000       0.00000000       0.00000000       0.00000000       0.00000000
H        4.20923268       0.81006721      10.00000000        3       1.00000000       0.00000000       0.00000000       0.00000000       0.00000000       0.00000000       0.00000000
H        0.00000000       3.24026883      10.00000000        3       1.00000000       0.00000000       0.00000000       0.00000000       0.00000000       0.00000000       0.00000000
H        2.80615512       3.24026883      10.00000000        3       1.00000000       0.00000000       0.00000000       0.00000000       0.00000000       0.00000000       0.00000000
H        0.00000000       1.62013441      12.29121606        2       1.00000000       0.00000000       0.00000000       0.00000000       0.00000000       0.00000000       0.00000000
H        2.80615512       1.62013441      12.29121606        2       1.00000000       0.00000000       0.00000000       0.00000000       0.00000000       0.00000000       0.00000000
H        1.40307756       4.05033604      12.29121606        2       1.00000000       0.00000000       0.00000000       0.00000000       0.00000000       0.00000000       0.00000000
H        4.20923268       4.05033604      12.29121606        2       1.00000000       0.00000000       0.00000000       0.00000000       0.00000000       0.00000000       0.00000000
H        0.00000000       0.00000000      14.58243212        1       1.00000000       0.00000000       0.00000000       0.00000000       0.00000000       0.00000000       0.00000000
H        2.80615512       0.00000000      14.58243212        1       1.00000000       0.00000000       0.00000000       0.00000000       0.00000000       0.00000000       0.00000000
H        1.40307756       2.43020162      14.58243212        1       1.00000000       0.00000000       0.00000000       0.00000000       0.00000000       0.00000000       0.00000000
H        4.20923268       2.43020162      14.58243212        1       1.00000000       0.00000000       0.00000000       0.00000000       0.00000000       0.00000000       0.00000000
H        5.61231521       3.24027731      16.81071168        0       1.00000000       0.00000830      -0.00000985      -0.00000232       0.00000930      -0.00000042       0.00000883
H       -0.00000225       1.62013657       7.77136689        0       1.00000000       0.00001582       0.00000145      -0.00000764      -0.00004573      -0.00001434      -0.00000706
H        2.80616664       3.24026909      16.81070423        0       1.00000000      -0.00000948      -0.00001824       0.00001877      -0.00000923       0.00001177      -0.00000081
H        1.40306984       4.05033574       7.77136928        0       1.00000000      -0.00000082      -0.00000236      -0.00000513       0.00000987      -0.00002228       0.00000939
H        1.40308023       0.81006429      16.81070381        0       1.00000000       0.00001337      -0.00000353       0.00000805      -0.00000069      -0.00001394       0.00001379
H        2.80615485       1.62013348       7.77136232        0       1.00000000       0.00000617       0.00000097      -0.00000644       0.00003446       0.00001287      -0.00001039
H        4.20924273       0.81007245      16.81069817        0       1.00000000      -0.00001297      -0.00000328       0.00000762       0.00000159       0.00000959       0.00000797
H        4.20923316       4.05033769       7.77137115        0       1.00000000       0.00000004      -0.00001009       0.00000485      -0.00001208       0.00000763      -0.00000456
20
Lattice="5.612310241546866 0.0 0.0 0.0 4.860403243099165 0.0 0.0 0.0 24.582432123328676" Properties=species:S:1:pos:R:3:tags:I:1:masses:R:1:momenta:R:3:forces:R:3 KEmax=25.851991011651638 iter=84810 volume=670.5618179858607 ns_energy=-13.620080611681477 last_walked_iter_clone=84761 energy=-13.620080612629094 stress="0.025725725681408015 5.6360904984800745e-08 -1.3082505907304133e-07 5.6360904984800745e-08 0.025725643398711796 -2.095319256279957e-07 -1.3082505907304133e-07 -2.095319256279957e-07 0.013286581069537513" pbc="T T F"
H        1.40307756       0.81006721      10.00000000        3       1.00000000       0.00000000       0.00000000       0.00000000       0.00000000       0.00000000       0.00000000
H        4.20923268       0.81006721      10.00000000        3       1.00000000       0.00000000       0.00000000       0.00000000       0.00000000       0.00000000       0.00000000
H        0.00000000       3.24026883      10.00000000        3       1.00000000       0.00000000       0.00000000       0.00000000       0.00000000       0.00000000       0.00000000
H        2.80615512       3.24026883      10.00000000        3       1.00000000       0.00000000       0.00000000       0.00000000       0.00000000       0.00000000       0.00000000
H        0.00000000       1.62013441      12.29121606        2       1.00000000       0.00000000       0.00000000       0.00000000       0.00000000       0.00000000       0.00000000
H        2.80615512       1.62013441      12.29121606        2       1.00000000       0.00000000       0.00000000       0.00000000       0.00000000       0.00000000       0.00000000
H        1.40307756       4.05033604      12.29121606        2       1.00000000       0.00000000       0.00000000       0.00000000       0.00000000       0.00000000       0.00000000
H        4.20923268       4.05033604      12.29121606        2       1.00000000       0.00000000       0.00000000       0.00000000       0.00000000       0.00000000       0.00000000
H        0.00000000       0.00000000      14.58243212        1       1.00000000       0.00000000       0.00000000       0.00000000       0.00000000       0.00000000       0.00000000
H        2.80615512       0.00000000      14.58243212        1       1.00000000       0.00000000       0.00000000       0.00000000       0.00000000       0.00000000       0.00000000
H        1.40307756       2.43020162      14.58243212        1       1.00000000       0.00000000       0.00000000       0.00000000       0.00000000       0.00000000       0.00000000
H        4.20923268       2.43020162      14.58243212        1       1.00000000       0.00000000       0.00000000       0.00000000       0.00000000       0.00000000       0.00000000
H        5.61230931       3.24027656      16.81070417        0       1.00000000       0.00001008       0.00000083       0.00000228       0.00000930      -0.00000042       0.00000883
H        5.61231310       1.62014735       7.77136014        0       1.00000000       0.00000247      -0.00000012      -0.00001356      -0.00004573      -0.00001434      -0.00000706
H        2.80615018       3.24026488      16.81069660        0       1.00000000       0.00001090       0.00000398      -0.00001227      -0.00000923       0.00001177      -0.00000081
H        1.40308178       4.05034122       7.77137894        0       1.00000000      -0.00001170      -0.00000703      -0.00000530       0.00000987      -0.00002228       0.00000939
H        1.40307414       0.81007292      16.81069839        0       1.00000000      -0.00000456       0.00000326       0.00000793      -0.00000069      -0.00001394       0.00001379
H        2.80616042       1.62013871       7.77136809        0       1.00000000       0.00001100      -0.00000625      -0.00001148       0.00003446       0.00001287      -0.00001039
H        4.20923537       0.81006986      16.81071398        0       1.00000000       0.00000335       0.00000949      -0.00000806       0.00000159       0.00000959       0.00000797
H        4.20924196       4.05034192       7.77136987        0       1.00000000       0.00000994       0.00000787      -0.00000591      -0.00001208       0.00000763      -0.00000456
20
Lattice="5.612310241546866 0.0 0.0 0.0 4.860403243099165 0.0 0.0 0.0 24.582432123328676" Properties=species:S:1:pos:R:3:tags:I:1:masses:R:1:momenta:R:3:forces:R:3 KEmax=25.851991011651638 iter=84810 volume=670.5618179858607 ns_energy=-13.620080611718013 last_walked_iter_clone=84782 energy=-13.620080612629094 stress="0.025725725681408015 5.6360904984800745e-08 -1.3082505907304133e-07 5.6360904984800745e-08 0.025725643398711796 -2.095319256279957e-07 -1.3082505907304133e-07 -2.095319256279957e-07 0.013286581069537513" pbc="T T F"
H        1.40307756       0.81006721      10.00000000        3       1.00000000       0.00000000       0.00000000       0.00000000       0.00000000       0.00000000       0.00000000
H        4.20923268       0.81006721      10.00000000        3       1.00000000       0.00000000       0.00000000       0.00000000       0.00000000       0.00000000       0.00000000
H        0.00000000       3.24026883      10.00000000        3       1.00000000       0.00000000       0.00000000       0.00000000       0.00000000       0.00000000       0.00000000
H        2.80615512       3.24026883      10.00000000        3       1.00000000       0.00000000       0.00000000       0.00000000       0.00000000       0.00000000       0.00000000
H        0.00000000       1.62013441      12.29121606        2       1.00000000       0.00000000       0.00000000       0.00000000       0.00000000       0.00000000       0.00000000
H        2.80615512       1.62013441      12.29121606        2       1.00000000       0.00000000       0.00000000       0.00000000       0.00000000       0.00000000       0.00000000
H        1.40307756       4.05033604      12.29121606        2       1.00000000       0.00000000       0.00000000       0.00000000       0.00000000       0.00000000       0.00000000
H        4.20923268       4.05033604      12.29121606        2       1.00000000       0.00000000       0.00000000       0.00000000       0.00000000       0.00000000       0.00000000
H        0.00000000       0.00000000      14.58243212        1       1.00000000       0.00000000       0.00000000       0.00000000       0.00000000       0.00000000       0.00000000
H        2.80615512       0.00000000      14.58243212        1       1.00000000       0.00000000       0.00000000       0.00000000       0.00000000       0.00000000       0.00000000
H        1.40307756       2.43020162      14.58243212        1       1.00000000       0.00000000       0.00000000       0.00000000       0.00000000       0.00000000       0.00000000
H        4.20923268       2.43020162      14.58243212        1       1.00000000       0.00000000       0.00000000       0.00000000       0.00000000       0.00000000       0.00000000
H        0.00000130       3.24027353      16.81070692        0       1.00000000       0.00000499       0.00000988       0.00001988       0.00000930      -0.00000042       0.00000883
H        0.00000320       1.62013730       7.77137230        0       1.00000000      -0.00002302      -0.00000157      -0.00000491      -0.00004573      -0.00001434      -0.00000706
H        2.80615955       3.24027083      16.81070964        0       1.00000000      -0.00000844      -0.00000432      -0.00000129      -0.00000923       0.00001177      -0.00000081
H        1.40307645       4.05034100       7.77137199        0       1.00000000      -0.00000369       0.00000165       0.00000085       0.00000987      -0.00002228       0.00000939
H        1.40307959       0.81006900      16.81070467        0       1.00000000       0.00000083       0.00001663      -0.00000488      -0.00000069      -0.00001394       0.00001379
H        2.80615588       1.62014044       7.77137310        0       1.00000000       0.00000491      -0.00002415       0.00000321       0.00003446       0.00001287      -0.00001039
H        4.20924038       0.81007019      16.81070735        0       1.00000000      -0.00000316      -0.00001008       0.00000582       0.00000159       0.00000959       0.00000797
H        4.20923574       4.05034669       7.77136133        0       1.00000000      -0.00001369      -0.00000223      -0.00000875      -0.00001208       0.00000763      -0.00000456
20
Lattice="5.612310241546866 0.0 0.0 0.0 4.860403243099165 0.0 0.0 0.0 24.582432123328676" Properties=species:S:1:pos:R:3:tags:I:1:masses:R:1:momenta:R:3:forces:R:3 KEmax=25.851991011651638 iter=84810 volume=670.5618179858607 ns_energy=-13.620080611685328 last_walked_iter_clone=84670 energy=-13.620080612629094 stress="0.025725725681408015 5.6360904984800745e-08 -1.3082505907304133e-07 5.6360904984800745e-08 0.025725643398711796 -2.095319256279957e-07 -1.3082505907304133e-07 -2.095319256279957e-07 0.013286581069537513" pbc="T T F"
H        1.40307756       0.81006721      10.00000000        3       1.00000000       0.00000000       0.00000000       0.00000000       0.00000000       0.00000000       0.00000000
H        4.20923268       0.81006721      10.00000000        3       1.00000000       0.00000000       0.00000000       0.00000000       0.00000000       0.00000000       0.00000000
H        0.00000000       3.24026883      10.00000000        3       1.00000000       0.00000000       0.00000000       0.00000000       0.00000000       0.00000000       0.00000000
H        2.80615512       3.24026883      10.00000000        3       1.00000000       0.00000000       0.00000000       0.00000000       0.00000000       0.00000000       0.00000000
H        0.00000000       1.62013441      12.29121606        2       1.00000000       0.00000000       0.00000000       0.00000000       0.00000000       0.00000000       0.00000000
H        2.80615512       1.62013441      12.29121606        2       1.00000000       0.00000000       0.00000000       0.00000000       0.00000000       0.00000000       0.00000000
H        1.40307756       4.05033604      12.29121606        2       1.00000000       0.00000000       0.00000000       0.00000000       0.00000000       0.00000000       0.00000000
H        4.20923268       4.05033604      12.29121606        2       1.00000000       0.00000000       0.00000000       0.00000000       0.00000000       0.00000000       0.00000000
H        0.00000000       0.00000000      14.58243212        1       1.00000000       0.00000000       0.00000000       0.00000000       0.00000000       0.00000000       0.00000000
H        2.80615512       0.00000000      14.58243212        1       1.00000000       0.00000000       0.00000000       0.00000000       0.00000000       0.00000000       0.00000000
H        1.40307756       2.43020162      14.58243212        1       1.00000000       0.00000000       0.00000000       0.00000000       0.00000000       0.00000000       0.00000000
H        4.20923268       2.43020162      14.58243212        1       1.00000000       0.00000000       0.00000000       0.00000000       0.00000000       0.00000000       0.00000000
H        5.61230981       3.24026847      16.81070314        0       1.00000000       0.00000402      -0.00000416      -0.00000060       0.00000930      -0.00000042       0.00000883
H        5.61231985       1.62013510       7.77136411        0       1.00000000      -0.00000541      -0.00002323       0.00000215      -0.00004573      -0.00001434      -0.00000706
H        2.80614464       3.24026742      16.81070004        0       1.00000000      -0.00000466      -0.00000326      -0.00000524      -0.00000923       0.00001177      -0.00000081
H        1.40308322       4.05033297       7.77137286        0       1.00000000      -0.00000405       0.00001458       0.00000020       0.00000987      -0.00002228       0.00000939
H        1.40307549       0.81006514      16.81070198        0       1.00000000       0.00000297      -0.00002257       0.00000048      -0.00000069      -0.00001394       0.00001379
H        2.80615526       1.62012673       7.77137210        0       1.00000000       0.00001597      -0.00000489       0.00000175       0.00003446       0.00001287      -0.00001039
H        4.20923583       0.81006454      16.81070080        0       1.00000000       0.00001095       0.00001178      -0.00000351       0.00000159       0.00000959       0.00000797
H        4.20923347       4.05033118       7.77137367        0       1.00000000       0.00000853       0.00000595       0.00000073      -0.00001208       0.00000763      -0.00000456
20
Lattice="5.612310241546866 0.0 0.0 0.0 4.860403243099165 0.0 0.0 0.0 24.582432123328676" Properties=species:S:1:pos:R:3:tags:I:1:masses:R:1:momenta:R:3:forces:R:3 KEmax=25.851991011651638 iter=84810 volume=670.5618179858607 ns_energy=-13.620080611651348 last_walked_iter_clone=84799 energy=-13.620080612629094 stress="0.025725725681408015 5.6360904984800745e-08 -1.3082505907304133e-07 5.6360904984800745e-08 0.025725643398711796 -2.095319256279957e-07 -1.3082505907304133e-07 -2.095319256279957e-07 0.013286581069537513" pbc="T T F"
H        1.40307756       0.81006721      10.00000000        3       1.00000000       0.00000000       0.00000000       0.00000000       0.00000000       0.00000000       0.00000000