20
Lattice="5.612310241546866 0.0 0.0 0.0 4.860403243099165 0.0 0.0 0.0 24.582432123328676" Properties=species:S:1:pos:R:3:tags:I:1:masses:R:1:momenta:R:3 KEmax=25.851991011651638 iter=99 volume=670.5618179858607 ns_energy=222.95055585996235 ns_P=0.0 config_n_global=99 ns_KE=9.63769920762961 pbc="T T F"
H        1.40307756       0.81006721      10.00000000        3       1.00000000       0.00000000       0.00000000       0.00000000
H        4.20923268       0.81006721      10.00000000        3       1.00000000       0.00000000       0.00000000       0.00000000
H        0.00000000       3.24026883      10.00000000        3       1.00000000       0.00000000       0.00000000       0.00000000
H        2.80615512       3.24026883      10.00000000        3       1.00000000       0.00000000       0.00000000       0.00000000
H        0.00000000       1.62013441      12.29121606        2       1.00000000       0.00000000       0.00000000       0.00000000
H        2.80615512       1.62013441      12.29121606        2       1.00000000       0.00000000       0.00000000       0.00000000
H        1.40307756       4.05033604      12.29121606        2       1.00000000       0.00000000       0.00000000       0.00000000
H        4.20923268       4.05033604      12.29121606        2       1.00000000       0.00000000       0.00000000       0.00000000
H        0.00000000       0.00000000      14.58243212        1       1.00000000       0.00000000       0.00000000       0.00000000
H        2.80615512       0.00000000      14.58243212        1       1.00000000       0.00000000       0.00000000       0.00000000
H        1.40307756       2.43020162      14.58243212        1       1.00000000       0.00000000       0.00000000       0.00000000
H        4.20923268       2.43020162      14.58243212        1       1.00000000       0.00000000       0.00000000       0.00000000
H        5.14018447       0.32061641      18.52813081        0       1.00000000      -0.48981873      -0.08090992      -0.57973170
H        2.62789661       3.94155758       5.84977917        0       1.00000000       0.69959993       0.26274310       0.30431306
H        4.01247464       3.05226239      19.55961309        0       1.00000000       0.56929091       0.36414248       1.59097692
H        0.08038420       4.32161677       5.60831332        0       1.00000000       0.38880467       1.08566429       0.02254666
H        4.73785893       1.70211621      18.05211444        0       1.00000000       1.88896121       0.70456459       0.05854367
H        2.45344969       2.94785276       4.56841164        0       1.00000000       2.15463746      -0.27442577       0.61994591
H        2.92607706       0.86923523      18.68452896        0       1.00000000      -0.85060034      -1.17487086       0.36013061
H        2.21962712       1.03488139       3.66907831        0       1.00000000       1.30620429      -0.66589082      -0.41265202
20
Lattice="5.612310241546866 0.0 0.0 0.0 4.860403243099165 0.0 0.0 0.0 24.582432123328676" Properties=species:S:1:pos:R:3:tags:I:1:masses:R:1:momenta:R:3 KEmax=25.851991011651638 iter=199 volume=670.5618179858607 ns_energy=23.92994817635636 ns_P=0.0 config_n_global=199 ns_KE=9.640203152050686 pbc="T T F"
H        1.40307756       0.81006721      10.00000000        3       1.00000000       0.00000000       0.00000000       0.00000000
H        4.20923268       0.81006721      10.00000000        3       1.00000000       0.00000000       0.00000000       0.00000000
H        0.00000000       3.24026883      10.00000000        3       1.00000000       0.00000000       0.00000000       0.00000000
H        2.80615512       3.24026883      10.00000000        3       1.00000000       0.00000000       0.00000000       0.00000000
H        0.00000000       1.62013441      12.29121606        2       1.00000000       0.00000000       0.00000000       0.00000000
H        2.80615512       1.62013441      12.29121606        2       1.00000000       0.00000000       0.00000000       0.00000000
H        1.40307756       4.05033604      12.29121606        2       1.00000000       0.00000000       0.00000000       0.00000000
H        4.20923268       4.05033604      12.29121606        2       1.00000000       0.00000000       0.00000000       0.00000000
H        0.00000000       0.00000000      14.58243212        1       1.00000000       0.00000000       0.00000000       0.00000000
H        2.80615512       0.00000000      14.58243212        1       1.00000000       0.00000000       0.00000000       0.00000000
H        1.40307756       2.43020162      14.58243212        1       1.00000000       0.00000000       0.00000000       0.00000000
H        4.20923268       2.43020162      14.58243212        1       1.00000000       0.00000000       0.00000000       0.00000000
H        4.91711605       2.22030597      21.07573407        0       1.00000000       0.39177991      -2.27331486      -0.05603830
H        0.65044652       4.74808085       4.19784625        0       1.00000000      -0.49082458       0.08049770       1.79514903
H        0.43918127       3.93129072      19.31783652        0       1.00000000       0.49965136       0.25397949      -0.53653296
H        0.85307297       0.60733793       6.51673477        0       1.00000000       0.90723383       0.24190582      -1.57002157
H        2.72357378       2.08167439      18.24104994        0       1.00000000       0.01173033      -0.36269873       0.03829199
H        0.19384654       2.90181267       4.54824435        0       1.00000000      -0.16427145      -1.20103912       1.12414247
H        3.11011755       4.52925654      21.03418777        0       1.00000000       1.24432513      -0.04849670      -0.00101919
H        5.34272914       1.03232704       7.87252328        0       1.00000000       1.11796487      -0.04699858       0.93177164
20
Lattice="5.612310241546866 0.0 0.0 0.0 4.860403243099165 0.0 0.0 0.0 24.582432123328676" Properties=species:S:1:pos:R:3:tags:I:1:masses:R:1:momenta:R:3 KEmax=25.851991011651638 iter=299 volume=670.5618179858607 ns_energy=16.541074207791443 last_walked_iter_clone=265 ns_P=0.0 config_n_global=299 ns_KE=25.122853138476643 pbc="T T F"
H        1.40307756       0.81006721      10.00000000        3       1.00000000       0.00000000       0.00000000       0.00000000
H        4.20923268       0.81006721      10.00000000        3       1.00000000       0.00000000       0.00000000       0.00000000
H        0.00000000       3.24026883      10.00000000        3       1.00000000       0.00000000       0.00000000       0.00000000
H        2.80615512       3.24026883      10.00000000        3       1.00000000       0.00000000       0.00000000       0.00000000
H        0.00000000       1.62013441      12.29121606        2       1.00000000       0.00000000       0.00000000       0.00000000
H        2.80615512       1.62013441      12.29121606        2       1.00000000       0.00000000       0.00000000       0.00000000
H        1.40307756       4.05033604      12.29121606        2       1.00000000       0.00000000       0.00000000       0.00000000
H        4.20923268       4.05033604      12.29121606        2       1.00000000       0.00000000       0.00000000       0.00000000
H        0.00000000       0.00000000      14.58243212        1       1.00000000       0.00000000       0.00000000       0.00000000
H        2.80615512       0.00000000      14.58243212        1       1.00000000       0.00000000       0.00000000       0.00000000
H        1.40307756       2.43020162      14.58243212        1       1.00000000       0.00000000       0.00000000       0.00000000
H        4.20923268       2.43020162      14.58243212        1       1.00000000       0.00000000       0.00000000       0.00000000
H        2.16325338       4.58251723      17.03308590        0       1.00000000      -0.46446567      -1.94805076      -0.80291843
H        1.53838636       0.20929965       7.27388397        0       1.00000000      -0.87325496       0.49275788      -0.39017753
H        4.84233057       4.66049113      20.15752912        0       1.00000000       2.35637474      -0.03727905       0.37649181
H        2.23342368       4.49475571       0.28285372        0       1.00000000       1.20641001      -1.02740502       3.71183169
H        3.18249509       4.82954700      22.12276981        0       1.00000000      -1.45249951       0.03714348      -0.94050459
H        3.69289539       0.73456359       6.03101264        0       1.00000000      -0.75271891       0.62320939       0.40184110
H        2.43269600       2.38321899      20.63860308        0       1.00000000       1.94956659      -1.72550731       1.64560860
H        2.43454664       2.48208443       5.14848768        0       1.00000000      -0.94835021      -1.49348348      -2.39170385
20
Lattice="5.612310241546866 0.0 0.0 0.0 4.860403243099165 0.0 0.0 0.0 24.582432123328676" Properties=species:S:1:pos:R:3:tags:I:1:masses:R:1:momenta:R:3 KEmax=25.851991011651638 iter=399 volume=670.5618179858607 ns_energy=14.814056671616193 last_walked_iter_clone=359 ns_P=0.0 config_n_global=399 ns_KE=23.401939613196262 pbc="T T F"
H        1.40307756       0.81006721      10.00000000        3       1.00000000       0.00000000       0.00000000       0.00000000
H        4.20923268       0.81006721      10.00000000        3       1.00000000       0.00000000       0.00000000       0.00000000
H        0.00000000       3.24026883      10.00000000        3       1.00000000       0.00000000       0.00000000       0.00000000
H        2.80615512       3.24026883      10.00000000        3       1.00000000       0.00000000       0.00000000       0.00000000
H        0.00000000       1.62013441      12.29121606        2       1.00000000       0.00000000       0.00000000       0.00000000
H        2.80615512       1.62013441      12.29121606        2       1.00000000       0.00000000       0.00000000       0.00000000
H        1.40307756       4.05033604      12.29121606        2       1.00000000       0.00000000       0.00000000       0.00000000
H        4.20923268       4.05033604      12.29121606        2       1.00000000       0.00000000       0.00000000       0.00000000
H        0.00000000       0.00000000      14.58243212        1       1.00000000       0.00000000       0.00000000       0.00000000
H        2.80615512       0.00000000      14.58243212        1       1.00000000       0.00000000       0.00000000       0.00000000
H        1.40307756       2.43020162      14.58243212        1       1.00000000       0.00000000       0.00000000       0.00000000
H        4.20923268       2.43020162      14.58243212        1       1.00000000       0.00000000       0.00000000       0.00000000
H        4.34041145       1.41283640      24.01414614        0       1.00000000       0.06227754       0.64203641       0.04622854
H        5.40957887       2.03950562       3.84561885        0       1.00000000       0.80287126       0.87453883       2.64139581
H        3.95791308       0.99669023      17.60323754        0       1.00000000       1.91962308      -0.21750008      -1.02833677
H        3.52435705       3.63714888       4.39669901        0       1.00000000       0.69514519       2.92945259       0.03621914
H        0.13672827       3.72002308      17.80187335        0       1.00000000       0.02141304       0.39684388      -0.82081056
H        4.77295841       4.95805790       7.76801065        0       1.00000000       2.14350466       2.45274251       1.66290055
H        2.08310329       2.70516688      20.84230524        0       1.00000000       0.90996628       0.61858163      -1.79339504
H        4.46350563       4.02460095       0.53408883        0       1.00000000       1.44062046       1.22853915      -1.38714840
20
Lattice="5.612310241546866 0.0 0.0 0.0 4.860403243099165 0.0 0.0 0.0 24.582432123328676" Properties=species:S:1:pos:R:3:tags:I:1:masses:R:1:momenta:R:3 KEmax=25.851991011651638 iter=499 volume=670.5618179858607 ns_energy=13.498371898917277 last_walked_iter_clone=362 ns_P=0.0 config_n_global=499 ns_KE=21.873178558418825 pbc="T T F"
H        1.40307756       0.81006721      10.00000000        3       1.00000000       0.00000000       0.00000000       0.00000000
H        4.20923268       0.81006721      10.00000000        3       1.00000000       0.00000000       0.00000000       0.00000000
H        0.00000000       3.24026883      10.00000000        3       1.00000000       0.00000000       0.00000000       0.00000000
H        2.80615512       3.24026883      10.00000000        3       1.00000000       0.00000000       0.00000000       0.00000000
H        0.00000000       1.62013441      12.29121606        2       1.00000000       0.00000000       0.00000000       0.00000000
H        2.80615512       1.62013441      12.29121606        2       1.00000000       0.00000000       0.00000000       0.00000000
H        1.40307756       4.05033604      12.29121606        2       1.00000000       0.00000000       0.00000000       0.00000000
H        4.20923268       4.05033604      12.29121606        2       1.00000000       0.00000000       0.00000000       0.00000000
H        0.00000000       0.00000000      14.58243212        1       1.00000000       0.00000000       0.00000000       0.00000000
H        2.80615512       0.00000000      14.58243212        1       1.00000000       0.00000000       0.00000000       0.00000000
H        1.40307756       2.43020162      14.58243212        1       1.00000000       0.00000000       0.00000000       0.00000000
H        4.20923268       2.43020162      14.58243212        1       1.00000000       0.00000000       0.00000000       0.00000000
H        3.81683240       3.23605302      19.15678303        0       1.00000000       0.01417768      -0.17670775      -0.70104187
H        0.25938090       3.97257837       4.22317836        0       1.00000000      -0.29052362      -0.42766787       0.07998678
H        2.85934396       1.28194931      17.62013534        0       1.00000000       1.12045017       0.54300622      -3.15183958
H        3.75789476       4.91124523       2.95772719        0       1.00000000      -0.20557015      -2.59684742       0.49237473
H        0.84513701       4.37857577      23.85696578        0       1.00000000      -0.95163995      -0.31721694       2.06379651
H        0.43184126       1.61943256       4.17496637        0       1.00000000      -0.29077044       0.06731971      -0.97736309
H        2.77617317       1.54862863      22.47689002        0       1.00000000       0.66510108      -0.60113175       3.69648083
H        2.21054003       4.41117196       5.71372289        0       1.00000000      -0.37153795      -1.77920296       0.59665015
20
Lattice="5.612310241546866 0.0 0.0 0.0 4.860403243099165 0.0 0.0 0.0 24.582432123328676" Properties=species:S:1:pos:R:3:tags:I:1:masses:R:1:momenta:R:3 KEmax=25.851991011651638 iter=599 volume=670.5618179858607 ns_energy=12.286352586573015 last_walked_iter_clone=445 ns_P=0.0 config_n_global=599 ns_KE=20.76070914052748 pbc="T T F"
H        1.40307756       0.81006721      10.00000000        3       1.00000000       0.00000000       0.00000000       0.00000000
H        4.20923268       0.81006721      10.00000000        3       1.00000000       0.00000000       0.00000000       0.00000000
H        0.00000000       3.24026883      10.00000000        3       1.00000000       0.00000000       0.00000000       0.00000000
H        2.80615512       3.24026883      10.00000000        3       1.00000000       0.00000000       0.00000000       0.00000000
H        0.00000000       1.62013441      12.29121606        2       1.00000000       0.00000000       0.00000000       0.00000000
H        2.80615512       1.62013441      12.29121606        2       1.00000000       0.00000000       0.00000000       0.00000000
H        1.40307756       4.05033604      12.29121606        2       1.00000000       0.00000000       0.00000000       0.00000000
H        4.20923268       4.05033604      12.29121606        2       1.00000000       0.00000000       0.00000000       0.00000000
H        0.00000000       0.00000000      14.58243212        1       1.00000000       0.00000000       0.00000000       0.00000000
H        2.80615512       0.00000000      14.58243212        1       1.00000000       0.00000000       0.00000000       0.00000000
H        1.40307756       2.43020162      14.58243212        1       1.00000000       0.00000000       0.00000000       0.00000000
H        4.20923268       2.43020162      14.58243212        1       1.00000000       0.00000000       0.00000000       0.00000000
H        4.40707467       2.88540253      18.70212477        0       1.00000000      -1.15747545       0.88597720      -0.41800102
H        2.34094486       2.84549108       2.70114619        0       1.00000000      -0.44240264       1.82914803       1.91232820
H        4.75307176       0.59170814      18.73958657        0       1.00000000       0.17267211       1.13004788       0.47827856
H        0.01091783       2.06064754       5.40025946        0       1.00000000      -2.67046321       0.91192827       0.35662200
H        2.06708910       1.07306230      23.57170291        0       1.00000000      -2.84761715       1.47310301      -1.14385260
H        3.26206520       2.55858114       0.24536664        0       1.00000000      -0.26034461      -1.41812014      -0.25953407
H        2.13013138       2.48792592      17.52258183        0       1.00000000       1.27473380      -1.58852261       0.47692927
H        0.84801895       4.27871606       7.49936380        0       1.00000000      -1.04926641      -1.65846496       0.66099294
20
Lattice="5.612310241546866 0.0 0.0 0.0 4.860403243099165 0.0 0.0 0.0 24.582432123328676" Properties=species:S:1:pos:R:3:tags:I:1:masses:R:1:momenta:R:3 KEmax=25.851991011651638 iter=699 volume=670.5618179858607 ns_energy=11.097320860108017 last_walked_iter_clone=628 ns_P=0.0 config_n_global=699 ns_KE=20.143488271666804 pbc="T T F"
H        1.40307756       0.81006721      10.00000000        3       1.00000000       0.00000000       0.00000000       0.00000000
H        4.20923268       0.81006721      10.00000000        3       1.00000000       0.00000000       0.00000000       0.00000000
H        0.00000000       3.24026883      10.00000000        3       1.00000000       0.00000000       0.00000000       0.00000000
H        2.80615512       3.24026883      10.00000000        3       1.00000000       0.00000000       0.00000000       0.00000000
H        0.00000000       1.62013441      12.29121606        2       1.00000000       0.00000000       0.00000000       0.00000000
H        2.80615512       1.62013441      12.29121606        2       1.00000000       0.00000000       0.00000000       0.00000000
H        1.40307756       4.05033604      12.29121606        2       1.00000000       0.00000000       0.00000000       0.00000000
H        4.20923268       4.05033604      12.29121606        2       1.00000000       0.00000000       0.00000000       0.00000000
H        0.00000000       0.00000000      14.58243212        1       1.00000000       0.00000000       0.00000000       0.00000000
H        2.80615512       0.00000000      14.58243212        1       1.00000000       0.00000000       0.00000000       0.00000000
H        1.40307756       2.43020162      14.58243212        1       1.00000000       0.00000000       0.00000000       0.00000000
H        4.20923268       2.43020162      14.58243212        1       1.00000000       0.00000000       0.00000000       0.00000000
H        4.01270240       0.18419462      16.95780534        0       1.00000000      -0.02772775      -1.80916385      -1.28407491
H        1.59374864       4.42758380       7.45829906        0       1.00000000      -1.79984731       0.47882180      -1.11520484
H        3.64935831       2.88614467      21.24034669        0       1.00000000      -0.06496061      -1.39014816      -0.80931034
H        2.63327832       3.37236874       5.09769119        0       1.00000000      -1.94597707      -1.27527695       2.09444348
H        1.51779000       1.26221794      20.97904275        0       1.00000000      -1.85576077       2.35503735       0.44404610
H        3.20987017       2.63975583       0.97999826        0       1.00000000      -0.91492303       1.02612876       0.70207388
H        0.80166036       3.96559554      19.61023694        0       1.00000000      -0.02274203       1.95070977      -0.44714603
H        2.42364432       1.67251420       3.31430692        0       1.00000000       1.01820262      -0.48279775       1.18937078
20
Lattice="5.612310241546866 0.0 0.0 0.0 4.860403243099165 0.0 0.0 0.0 24.582432123328676" Properties=species:S:1:pos:R:3:tags:I:1:masses:R:1:momenta:R:3 KEmax=25.851991011651638 iter=799 volume=670.5618179858607 ns_energy=9.950550230382872 last_walked_iter_clone=752 ns_P=0.0 config_n_global=799 ns_KE=18.652140546769704 pbc="T T F"
H        1.40307756       0.81006721      10.00000000        3       1.00000000       0.00000000       0.00000000       0.00000000
H        4.20923268       0.81006721      10.00000000        3       1.00000000       0.00000000       0.00000000       0.00000000
H        0.00000000       3.24026883      10.00000000        3       1.00000000       0.00000000       0.00000000       0.00000000
H        2.80615512       3.24026883      10.00000000        3       1.00000000       0.00000000       0.00000000       0.00000000
H        0.00000000       1.62013441      12.29121606        2       1.00000000       0.00000000       0.00000000       0.00000000
H        2.80615512       1.62013441      12.29121606        2       1.00000000       0.00000000       0.00000000       0.00000000
H        1.40307756       4.05033604      12.29121606        2       1.00000000       0.00000000       0.00000000       0.00000000
H        4.20923268       4.05033604      12.29121606        2       1.00000000       0.00000000       0.00000000       0.00000000
H        0.00000000       0.00000000      14.58243212        1       1.00000000       0.00000000       0.00000000       0.00000000
H        2.80615512       0.00000000      14.58243212        1       1.00000000       0.00000000       0.00000000       0.00000000
H        1.40307756       2.43020162      14.58243212        1       1.00000000       0.00000000       0.00000000       0.00000000
H        4.20923268       2.43020162      14.58243212        1       1.00000000       0.00000000       0.00000000       0.00000000
H        1.41686373       1.53379812      22.01136535        0       1.00000000      -0.38154844      -0.30418532      -1.79642759
H        3.19035523       0.93977877       1.51632332        0       1.00000000       1.28731636       0.70107158       2.28864311
H        3.14014331       4.06832818      18.89326543        0       1.00000000      -0.08547394      -0.90264045       2.06945875
H        0.97121956       3.80903498       7.20058602        0       1.00000000       1.75701026      -1.52584228       0.44369963
H        4.18760069       1.30145795      24.38912046        0       1.00000000       1.42832271       0.26083378      -0.25481220
H        1.83022793       1.09089658       6.18443565        0       1.00000000       0.76363246      -1.44761231       0.46794882
H        2.99024876       4.02236209      21.58806217        0       1.00000000      -2.20819452      -0.75310655       0.55885607
H        5.31348971       1.63348794       4.85501493        0       1.00000000       0.42191885       1.04117539       1.90974845
20
Lattice="5.612310241546866 0.0 0.0 0.0 4.860403243099165 0.0 0.0 0.0 24.582432123328676" Properties=species:S:1:pos:R:3:tags:I:1:masses:R:1:momenta:R:3 KEmax=25.851991011651638 iter=899 volume=670.5618179858607 ns_energy=8.848095009641913 last_walked_iter_clone=794 ns_P=0.0 config_n_global=899 ns_KE=15.71327452011456 pbc="T T F"
H        1.40307756       0.81006721      10.00000000        3       1.00000000       0.00000000       0.00000000       0.00000000
H        4.20923268       0.81006721      10.00000000        3       1.00000000       0.00000000       0.00000000       0.00000000
H        0.00000000       3.24026883      10.00000000        3       1.00000000       0.00000000       0.00000000       0.00000000
H        2.80615512       3.24026883      10.00000000        3       1.00000000       0.00000000       0.00000000       0.00000000
H        0.00000000       1.62013441      12.29121606        2       1.00000000       0.00000000       0.00000000       0.00000000
H        2.80615512       1.62013441      12.29121606        2       1.00000000       0.00000000       0.00000000       0.00000000
H        1.40307756       4.05033604      12.29121606        2       1.00000000       0.00000000       0.00000000       0.00000000
H        4.20923268       4.05033604      12.29121606        2       1.00000000       0.00000000       0.00000000       0.00000000
H        0.00000000       0.00000000      14.58243212        1       1.00000000       0.00000000       0.00000000       0.00000000
H        2.80615512       0.00000000      14.58243212        1       1.00000000       0.00000000       0.00000000       0.00000000
H        1.40307756       2.43020162      14.58243212        1       1.00000000       0.00000000       0.00000000       0.00000000
H        4.20923268       2.43020162      14.58243212        1       1.00000000       0.00000000       0.00000000       0.00000000
H        2.33696367       3.30639597      22.90659605        0       1.00000000      -0.70360711       0.78027032      -1.60731701
H        0.27108378       2.16974452       7.25490970        0       1.00000000      -0.64228369       1.35290904      -0.41564150
H        2.86466449       3.12962486      16.37314459        0       1.00000000       1.29294713       0.35676497      -1.63942050
H        2.27064913       2.19560666       6.06241552        0       1.00000000      -0.22788706       1.56349121       1.05991385
H        0.82615806       1.76549327      17.34445187        0       1.00000000      -0.19715483       3.19560139      -0.38011552
H        0.90131447       3.91829655       1.62625499        0       1.00000000      -0.91578195       0.48361001      -0.36641966
H        3.85928586       4.43370760      18.78382083        0       1.00000000      -0.27254653       0.41157648       1.52518927
H        3.45526194       1.34699732       8.09451390        0       1.00000000       0.50936132      -1.32307477      -1.01740841
20
Lattice="5.612310241546866 0.0 0.0 0.0 4.860403243099165 0.0 0.0 0.0 24.582432123328676" Properties=species:S:1:pos:R:3:tags:I:1:masses:R:1:momenta:R:3 KEmax=25.851991011651638 iter=999 volume=670.5618179858607 ns_energy=7.886524247478627 last_walked_iter_clone=957 ns_P=0.0 config_n_global=999 ns_KE=17.210430076741346 pbc="T T F"
H        1.40307756       0.81006721      10.00000000        3       1.00000000       0.00000000       0.00000000       0.00000000
H        4.20923268       0.81006721      10.00000000        3       1.00000000       0.00000000       0.00000000       0.00000000
H        0.00000000       3.24026883      10.00000000        3       1.00000000       0.00000000       0.00000000       0.00000000
H        2.80615512       3.24026883      10.00000000        3       1.00000000       0.00000000       0.00000000       0.00000000
H        0.00000000       1.62013441      12.29121606        2       1.00000000       0.00000000       0.00000000       0.00000000
H        2.80615512       1.62013441      12.29121606        2       1.00000000       0.00000000       0.00000000       0.00000000
H        1.40307756       4.05033604      12.29121606        2       1.00000000       0.00000000       0.00000000       0.00000000
H        4.20923268       4.05033604      12.29121606        2       1.00000000       0.00000000       0.00000000       0.00000000
H        0.00000000       0.00000000      14.58243212        1       1.00000000       0.00000000       0.00000000       0.00000000
H        2.80615512       0.00000000      14.58243212        1       1.00000000       0.00000000       0.00000000       0.00000000
H        1.40307756       2.43020162      14.58243212        1       1.00000000       0.00000000       0.00000000       0.00000000
H        4.20923268       2.43020162      14.58243212        1       1.00000000       0.00000000       0.00000000       0.00000000
H        3.26438750       0.56297948      19.69946999        0       1.00000000       3.29698658      -1.13295043       0.17370894
H        2.30354134       1.19642181       0.00332201        0       1.00000000       1.69057279       1.09943210       1.10946467
H        5.48017024       2.54458818      20.41526695        0       1.00000000       0.61297159      -0.48424265      -0.52745601
H        1.29058419       3.23558248       7.40789778        0       1.00000000       0.30955817      -1.00947633      -0.13122563
H        0.24188801       3.42412592      18.01845559        0       1.00000000      -0.41114434       0.17704174      -1.35122242
H        5.36804825       1.15847012       7.59301810        0       1.00000000      -0.39392404       0.16575063      -0.26469892
H        2.63991217       3.32245312      21.36906152        0       1.00000000      -1.66511312      -1.50620372       1.18288313
H        3.77395859       0.26912473       2.16668380        0       1.00000000      -0.34638672      -0.96466479       2.26910533
20
Lattice="5.612310241546866 0.0 0.0 0.0 4.860403243099165 0.0 0.0 0.0 24.582432123328676" Properties=species:S:1:pos:R:3:tags:I:1:masses:R:1:momenta:R:3 KEmax=25.851991011651638 iter=1099 volume=670.5618179858607 ns_energy=6.902675748093187 last_walked_iter_clone=1014 ns_P=0.0 config_n_global=1099 ns_KE=15.318112826180407 pbc="T T F"
H        1.40307756       0.81006721      10.00000000        3       1.00000000       0.00000000       0.00000000       0.00000000