20
Lattice="5.612310241546866 0.0 0.0 0.0 4.860403243099165 0.0 0.0 0.0 44.58243212332868" Properties=species:S:1:pos:R:3:tags:I:1:masses:R:1:momenta:R:3:forces:R:3 KEmax=25.851991011651638 iter=200703 volume=1216.1236359717223 set_wall=T ns_energy=-13.634374273259812 last_walked_iter_clone=200200 energy=-13.63437728246701 stress="0.0253635122962489 -2.095849246643443e-06 4.262969894459073e-06 -2.095849246643443e-06 0.02537215701629749 8.721699195468457e-06 4.262969894459073e-06 8.721699195468457e-06 0.011626400512909914" pbc="T T F"
H        1.40307756       0.81006721      20.00000000        3       1.00000000       0.00000000       0.00000000       0.00000000       0.00000000       0.00000000       0.00000000
H        4.20923268       0.81006721      20.00000000        3       1.00000000       0.00000000       0.00000000       0.00000000       0.00000000       0.00000000       0.00000000
H        0.00000000       3.24026883      20.00000000        3       1.00000000       0.00000000       0.00000000       0.00000000       0.00000000       0.00000000       0.00000000
H        2.80615512       3.24026883      20.00000000        3       1.00000000       0.00000000       0.00000000       0.00000000       0.00000000       0.00000000       0.00000000
H        0.00000000       1.62013441      22.29121606        2       1.00000000       0.00000000       0.00000000       0.00000000       0.00000000       0.00000000       0.00000000
H        2.80615512       1.62013441      22.29121606        2       1.00000000       0.00000000       0.00000000       0.00000000       0.00000000       0.00000000       0.00000000
H        1.40307756       4.05033604      22.29121606        2       1.00000000       0.00000000       0.00000000       0.00000000       0.00000000       0.00000000       0.00000000
H        4.20923268       4.05033604      22.29121606        2       1.00000000       0.00000000       0.00000000       0.00000000       0.00000000       0.00000000       0.00000000
H        0.00000000       0.00000000      24.58243212        1       1.00000000       0.00000000       0.00000000       0.00000000       0.00000000       0.00000000       0.00000000
H        2.80615512       0.00000000      24.58243212        1       1.00000000       0.00000000       0.00000000       0.00000000       0.00000000       0.00000000       0.00000000
H        1.40307756       2.43020162      24.58243212        1       1.00000000       0.00000000       0.00000000       0.00000000       0.00000000       0.00000000       0.00000000
H        4.20923268       2.43020162      24.58243212        1       1.00000000       0.00000000       0.00000000       0.00000000       0.00000000       0.00000000       0.00000000
H        4.20932072       4.05001196      26.79068402        0       1.00000000      -0.00018531      -0.00018637       0.00084755       0.00114595      -0.00204395       0.00319436
H        1.40303405       4.05047445      26.79163773        0       1.00000000      -0.00004983      -0.00051169       0.00106927      -0.00020233       0.00017228      -0.00321035
H       -0.00057999       1.62038724      26.79124537        0       1.00000000       0.00081524       0.00059289       0.00052240       0.00165107       0.00081784      -0.00093327
H        1.40252887       0.80967909      29.01807700        0       1.00000000      -0.00036697       0.00082667      -0.00000974       0.00106617       0.00035737      -0.00017791
H        5.61175645       3.23966167      29.01762394        0       1.00000000      -0.00024541       0.00004801       0.00093719      -0.00169362      -0.00003773      -0.00104000
H        2.80546497       3.23973631      29.01849798        0       1.00000000       0.00074023      -0.00006986      -0.00058451       0.00011367       0.00022893      -0.00152641
H        4.20847853       0.80925529      29.01754787        0       1.00000000      -0.00150094       0.00114093      -0.00037899       0.00017284      -0.00203697      -0.00113607
H        2.80555875       1.62016966      26.79159680        0       1.00000000      -0.00017405       0.00147298       0.00075979      -0.00238466       0.00306949       0.00161547
20
Lattice="5.612310241546866 0.0 0.0 0.0 4.860403243099165 0.0 0.0 0.0 44.58243212332868" Properties=species:S:1:pos:R:3:tags:I:1:masses:R:1:momenta:R:3:forces:R:3 KEmax=25.851991011651638 iter=200703 volume=1216.1236359717223 set_wall=T ns_energy=-13.634374363767867 last_walked_iter_clone=200300 energy=-13.63437728246701 stress="0.0253635122962489 -2.095849246643443e-06 4.262969894459073e-06 -2.095849246643443e-06 0.02537215701629749 8.721699195468457e-06 4.262969894459073e-06 8.721699195468457e-06 0.011626400512909914" pbc="T T F"
H        1.40307756       0.81006721      20.00000000        3       1.00000000       0.00000000       0.00000000       0.00000000       0.00000000       0.00000000       0.00000000
H        4.20923268       0.81006721      20.00000000        3       1.00000000       0.00000000       0.00000000       0.00000000       0.00000000       0.00000000       0.00000000
H        0.00000000       3.24026883      20.00000000        3       1.00000000       0.00000000       0.00000000       0.00000000       0.00000000       0.00000000       0.00000000
H        2.80615512       3.24026883      20.00000000        3       1.00000000       0.00000000       0.00000000       0.00000000       0.00000000       0.00000000       0.00000000
H        0.00000000       1.62013441      22.29121606        2       1.00000000       0.00000000       0.00000000       0.00000000       0.00000000       0.00000000       0.00000000
H        2.80615512       1.62013441      22.29121606        2       1.00000000       0.00000000       0.00000000       0.00000000       0.00000000       0.00000000       0.00000000
H        1.40307756       4.05033604      22.29121606        2       1.00000000       0.00000000       0.00000000       0.00000000       0.00000000       0.00000000       0.00000000
H        4.20923268       4.05033604      22.29121606        2       1.00000000       0.00000000       0.00000000       0.00000000       0.00000000       0.00000000       0.00000000
H        0.00000000       0.00000000      24.58243212        1       1.00000000       0.00000000       0.00000000       0.00000000       0.00000000       0.00000000       0.00000000
H        2.80615512       0.00000000      24.58243212        1       1.00000000       0.00000000       0.00000000       0.00000000       0.00000000       0.00000000       0.00000000
H        1.40307756       2.43020162      24.58243212        1       1.00000000       0.00000000       0.00000000       0.00000000       0.00000000       0.00000000       0.00000000
H        4.20923268       2.43020162      24.58243212        1       1.00000000       0.00000000       0.00000000       0.00000000       0.00000000       0.00000000       0.00000000
H        4.20829100       4.04961081      26.79137175        0       1.00000000       0.00027064      -0.00018986       0.00054611       0.00114595      -0.00204395       0.00319436
H        1.40276047       4.05027453      26.79072470        0       1.00000000      -0.00016642      -0.00013197      -0.00052977      -0.00020233       0.00017228      -0.00321035
H        5.61184442       1.61959546      26.79122098        0       1.00000000       0.00012189       0.00043085       0.00010361       0.00165107       0.00081784      -0.00093327
H        1.40287323       0.81049228      29.01830149        0       1.00000000       0.00088693       0.00107691       0.00067274       0.00106617       0.00035737      -0.00017791
H        5.61194071       3.24060635      29.01779488        0       1.00000000      -0.00012857      -0.00172054       0.00054151      -0.00169362      -0.00003773      -0.00104000
H        2.80536586       3.23999166      29.01773519        0       1.00000000       0.00020777       0.00092096      -0.00053747       0.00011367       0.00022893      -0.00152641
H        4.20906943       0.81046274      29.01701394        0       1.00000000      -0.00057728      -0.00025588      -0.00014338       0.00017284      -0.00203697      -0.00113607
H        2.80614699       1.61980097      26.79141846        0       1.00000000      -0.00010857       0.00025430      -0.00020188      -0.00238466       0.00306949       0.00161547
20
Lattice="5.612310241546866 0.0 0.0 0.0 4.860403243099165 0.0 0.0 0.0 44.58243212332868" Properties=species:S:1:pos:R:3:tags:I:1:masses:R:1:momenta:R:3:forces:R:3 KEmax=25.851991011651638 iter=200703 volume=1216.1236359717223 set_wall=T ns_energy=-13.634374370443668 last_walked_iter_clone=200517 energy=-13.63437728246701 stress="0.0253635122962489 -2.095849246643443e-06 4.262969894459073e-06 -2.095849246643443e-06 0.02537215701629749 8.721699195468457e-06 4.262969894459073e-06 8.721699195468457e-06 0.011626400512909914" pbc="T T F"
H        1.40307756       0.81006721      20.00000000        3       1.00000000       0.00000000       0.00000000       0.00000000       0.00000000       0.00000000       0.00000000
H        4.20923268       0.81006721      20.00000000        3       1.00000000       0.00000000       0.00000000       0.00000000       0.00000000       0.00000000       0.00000000
H        0.00000000       3.24026883      20.00000000        3       1.00000000       0.00000000       0.00000000       0.00000000       0.00000000       0.00000000       0.00000000
H        2.80615512       3.24026883      20.00000000        3       1.00000000       0.00000000       0.00000000       0.00000000       0.00000000       0.00000000       0.00000000
H        0.00000000       1.62013441      22.29121606        2       1.00000000       0.00000000       0.00000000       0.00000000       0.00000000       0.00000000       0.00000000
H        2.80615512       1.62013441      22.29121606        2       1.00000000       0.00000000       0.00000000       0.00000000       0.00000000       0.00000000       0.00000000
H        1.40307756       4.05033604      22.29121606        2       1.00000000       0.00000000       0.00000000       0.00000000       0.00000000       0.00000000       0.00000000
H        4.20923268       4.05033604      22.29121606        2       1.00000000       0.00000000       0.00000000       0.00000000       0.00000000       0.00000000       0.00000000
H        0.00000000       0.00000000      24.58243212        1       1.00000000       0.00000000       0.00000000       0.00000000       0.00000000       0.00000000       0.00000000
H        2.80615512       0.00000000      24.58243212        1       1.00000000       0.00000000       0.00000000       0.00000000       0.00000000       0.00000000       0.00000000
H        1.40307756       2.43020162      24.58243212        1       1.00000000       0.00000000       0.00000000       0.00000000       0.00000000       0.00000000       0.00000000
H        4.20923268       2.43020162      24.58243212        1       1.00000000       0.00000000       0.00000000       0.00000000       0.00000000       0.00000000       0.00000000
H        4.20943947       4.04957278      26.79116041        0       1.00000000       0.00021483      -0.00053697      -0.00041888       0.00114595      -0.00204395       0.00319436
H        1.40337900       4.05079943      26.79121689        0       1.00000000       0.00074998      -0.00065009      -0.00055187      -0.00020233       0.00017228      -0.00321035
H        5.61232817       1.61959187      26.79188331        0       1.00000000       0.00033809       0.00038788      -0.00089667       0.00165107       0.00081784      -0.00093327
H        1.40261510       0.81009881      29.01771855        0       1.00000000       0.00035179      -0.00000190      -0.00084562       0.00106617       0.00035737      -0.00017791
H        5.61195602       3.24025312      29.01764267        0       1.00000000      -0.00004884      -0.00045216      -0.00066263      -0.00169362      -0.00003773      -0.00104000
H        2.80554036       3.24040701      29.01820486        0       1.00000000       0.00057449      -0.00006463       0.00101759       0.00011367       0.00022893      -0.00152641
H        4.20851934       0.80984948      29.01801741        0       1.00000000      -0.00095014       0.00024319      -0.00123577       0.00017284      -0.00203697      -0.00113607
H        2.80640881       1.62017079      26.79180312        0       1.00000000      -0.00068857       0.00109096      -0.00051825      -0.00238466       0.00306949       0.00161547
20
Lattice="5.612310241546866 0.0 0.0 0.0 4.860403243099165 0.0 0.0 0.0 44.58243212332868" Properties=species:S:1:pos:R:3:tags:I:1:masses:R:1:momenta:R:3:forces:R:3 KEmax=25.851991011651638 iter=200703 volume=1216.1236359717223 set_wall=T ns_energy=-13.63437434810942 last_walked_iter_clone=199775 energy=-13.63437728246701 stress="0.0253635122962489 -2.095849246643443e-06 4.262969894459073e-06 -2.095849246643443e-06 0.02537215701629749 8.721699195468457e-06 4.262969894459073e-06 8.721699195468457e-06 0.011626400512909914" pbc="T T F"
H        1.40307756       0.81006721      20.00000000        3       1.00000000       0.00000000       0.00000000       0.00000000       0.00000000       0.00000000       0.00000000
H        4.20923268       0.81006721      20.00000000        3       1.00000000       0.00000000       0.00000000       0.00000000       0.00000000       0.00000000       0.00000000
H        0.00000000       3.24026883      20.00000000        3       1.00000000       0.00000000       0.00000000       0.00000000       0.00000000       0.00000000       0.00000000
H        2.80615512       3.24026883      20.00000000        3       1.00000000       0.00000000       0.00000000       0.00000000       0.00000000       0.00000000       0.00000000
H        0.00000000       1.62013441      22.29121606        2       1.00000000       0.00000000       0.00000000       0.00000000       0.00000000       0.00000000       0.00000000
H        2.80615512       1.62013441      22.29121606        2       1.00000000       0.00000000       0.00000000       0.00000000       0.00000000       0.00000000       0.00000000
H        1.40307756       4.05033604      22.29121606        2       1.00000000       0.00000000       0.00000000       0.00000000       0.00000000       0.00000000       0.00000000
H        4.20923268       4.05033604      22.29121606        2       1.00000000       0.00000000       0.00000000       0.00000000       0.00000000       0.00000000       0.00000000
H        0.00000000       0.00000000      24.58243212        1       1.00000000       0.00000000       0.00000000       0.00000000       0.00000000       0.00000000       0.00000000
H        2.80615512       0.00000000      24.58243212        1       1.00000000       0.00000000       0.00000000       0.00000000       0.00000000       0.00000000       0.00000000
H        1.40307756       2.43020162      24.58243212        1       1.00000000       0.00000000       0.00000000       0.00000000       0.00000000       0.00000000       0.00000000
H        4.20923268       2.43020162      24.58243212        1       1.00000000       0.00000000       0.00000000       0.00000000       0.00000000       0.00000000       0.00000000
H        4.20871786       4.05103658      26.79129803        0       1.00000000      -0.00039961      -0.00003359      -0.00120477       0.00114595      -0.00204395       0.00319436
H        1.40226942       4.05027582      26.79123736        0       1.00000000      -0.00003148       0.00037229       0.00133339      -0.00020233       0.00017228      -0.00321035
H        5.61154753       1.62093532      26.79120724        0       1.00000000      -0.00050811       0.00029474       0.00104446       0.00165107       0.00081784      -0.00093327
H        1.40286547       0.81017518      29.01693110        0       1.00000000       0.00039369       0.00067122      -0.00042386       0.00106617       0.00035737      -0.00017791
H        5.61137912       3.24055784      29.01773015        0       1.00000000       0.00070421       0.00055052      -0.00027852      -0.00169362      -0.00003773      -0.00104000
H        2.80483237       3.24086214      29.01770572        0       1.00000000       0.00005527      -0.00093390      -0.00091760       0.00011367       0.00022893      -0.00152641
H        4.20877317       0.81039278      29.01835687        0       1.00000000       0.00087229       0.00040550      -0.00017647       0.00017284      -0.00203697      -0.00113607
H        2.80526496       1.62070481      26.79077989        0       1.00000000       0.00054797       0.00031850      -0.00001912      -0.00238466       0.00306949       0.00161547
20
Lattice="5.612310241546866 0.0 0.0 0.0 4.860403243099165 0.0 0.0 0.0 44.58243212332868" Properties=species:S:1:pos:R:3:tags:I:1:masses:R:1:momenta:R:3:forces:R:3 KEmax=25.851991011651638 iter=200703 volume=1216.1236359717223 set_wall=T ns_energy=-13.634374315092636 last_walked_iter_clone=199480 energy=-13.63437728246701 stress="0.0253635122962489 -2.095849246643443e-06 4.262969894459073e-06 -2.095849246643443e-06 0.02537215701629749 8.721699195468457e-06 4.262969894459073e-06 8.721699195468457e-06 0.011626400512909914" pbc="T T F"
H        1.40307756       0.81006721      20.00000000        3       1.00000000       0.00000000       0.00000000       0.00000000       0.00000000       0.00000000       0.00000000
H        4.20923268       0.81006721      20.00000000        3       1.00000000       0.00000000       0.00000000       0.00000000       0.00000000       0.00000000       0.00000000
H        0.00000000       3.24026883      20.00000000        3       1.00000000       0.00000000       0.00000000       0.00000000       0.00000000       0.00000000       0.00000000
H        2.80615512       3.24026883      20.00000000        3       1.00000000       0.00000000       0.00000000       0.00000000       0.00000000       0.00000000       0.00000000
H        0.00000000       1.62013441      22.29121606        2       1.00000000       0.00000000       0.00000000       0.00000000       0.00000000       0.00000000       0.00000000
H        2.80615512       1.62013441      22.29121606        2       1.00000000       0.00000000       0.00000000       0.00000000       0.00000000       0.00000000       0.00000000
H        1.40307756       4.05033604      22.29121606        2       1.00000000       0.00000000       0.00000000       0.00000000       0.00000000       0.00000000       0.00000000
H        4.20923268       4.05033604      22.29121606        2       1.00000000       0.00000000       0.00000000       0.00000000       0.00000000       0.00000000       0.00000000
H        0.00000000       0.00000000      24.58243212        1       1.00000000       0.00000000       0.00000000       0.00000000       0.00000000       0.00000000       0.00000000
H        2.80615512       0.00000000      24.58243212        1       1.00000000       0.00000000       0.00000000       0.00000000       0.00000000       0.00000000       0.00000000
H        1.40307756       2.43020162      24.58243212        1       1.00000000       0.00000000       0.00000000       0.00000000       0.00000000       0.00000000       0.00000000
H        4.20923268       2.43020162      24.58243212        1       1.00000000       0.00000000       0.00000000       0.00000000       0.00000000       0.00000000       0.00000000
H        4.20927645       4.05062453      26.79112624        0       1.00000000      -0.00076334      -0.00015581      -0.00055418       0.00114595      -0.00204395       0.00319436
H        1.40281943       4.05023118      26.79090439        0       1.00000000       0.00009220       0.00042530       0.00098291      -0.00020233       0.00017228      -0.00321035
H        0.00028523       1.62037362      26.79054363        0       1.00000000       0.00001113       0.00100817       0.00044984       0.00165107       0.00081784      -0.00093327
H        1.40355447       0.81030568      29.01680991        0       1.00000000      -0.00058006      -0.00110914       0.00113350       0.00106617       0.00035737      -0.00017791
H        0.00005566       3.24013682      29.01770697        0       1.00000000      -0.00021075       0.00079364      -0.00046477      -0.00169362      -0.00003773      -0.00104000
H        2.80664609       3.24118298      29.01762355        0       1.00000000      -0.00046811      -0.00003503      -0.00011870       0.00011367       0.00022893      -0.00152641
H        4.20968175       0.81090919      29.01832800        0       1.00000000       0.00007492       0.00001281       0.00057701       0.00017284      -0.00203697      -0.00113607
H        2.80677680       1.62081907      26.79056693        0       1.00000000      -0.00092071       0.00024163      -0.00068587      -0.00238466       0.00306949       0.00161547
20
Lattice="5.612310241546866 0.0 0.0 0.0 4.860403243099165 0.0 0.0 0.0 44.58243212332868" Properties=species:S:1:pos:R:3:tags:I:1:masses:R:1:momenta:R:3:forces:R:3 KEmax=25.851991011651638 iter=200703 volume=1216.1236359717223 set_wall=T ns_energy=-13.63437430224422 last_walked_iter_clone=200170 energy=-13.63437728246701 stress="0.0253635122962489 -2.095849246643443e-06 4.262969894459073e-06 -2.095849246643443e-06 0.02537215701629749 8.721699195468457e-06 4.262969894459073e-06 8.721699195468457e-06 0.011626400512909914" pbc="T T F"
H        1.40307756       0.81006721      20.00000000        3       1.00000000       0.00000000       0.00000000       0.00000000       0.00000000       0.00000000       0.00000000
H        4.20923268       0.81006721      20.00000000        3       1.00000000       0.00000000       0.00000000       0.00000000       0.00000000       0.00000000       0.00000000
H        0.00000000       3.24026883      20.00000000        3       1.00000000       0.00000000       0.00000000       0.00000000       0.00000000       0.00000000       0.00000000
H        2.80615512       3.24026883      20.00000000        3       1.00000000       0.00000000       0.00000000       0.00000000       0.00000000       0.00000000       0.00000000
H        0.00000000       1.62013441      22.29121606        2       1.00000000       0.00000000       0.00000000       0.00000000       0.00000000       0.00000000       0.00000000
H        2.80615512       1.62013441      22.29121606        2       1.00000000       0.00000000       0.00000000       0.00000000       0.00000000       0.00000000       0.00000000
H        1.40307756       4.05033604      22.29121606        2       1.00000000       0.00000000       0.00000000       0.00000000       0.00000000       0.00000000       0.00000000
H        4.20923268       4.05033604      22.29121606        2       1.00000000       0.00000000       0.00000000       0.00000000       0.00000000       0.00000000       0.00000000
H        0.00000000       0.00000000      24.58243212        1       1.00000000       0.00000000       0.00000000       0.00000000       0.00000000       0.00000000       0.00000000
H        2.80615512       0.00000000      24.58243212        1       1.00000000       0.00000000       0.00000000       0.00000000       0.00000000       0.00000000       0.00000000
H        1.40307756       2.43020162      24.58243212        1       1.00000000       0.00000000       0.00000000       0.00000000       0.00000000       0.00000000       0.00000000
H        4.20923268       2.43020162      24.58243212        1       1.00000000       0.00000000       0.00000000       0.00000000       0.00000000       0.00000000       0.00000000
H        4.20834437       4.05047405      26.79090295        0       1.00000000      -0.00013096      -0.00141869       0.00131175       0.00114595      -0.00204395       0.00319436
H        1.40213421       4.05099731      26.79102517        0       1.00000000      -0.00029798       0.00006393      -0.00038549      -0.00020233       0.00017228      -0.00321035
H        5.61213541       1.62025059      26.79080778        0       1.00000000       0.00058277      -0.00068676      -0.00064063       0.00165107       0.00081784      -0.00093327
H        1.40285529       0.80984885      29.01809311        0       1.00000000      -0.00054278       0.00007217      -0.00011989       0.00106617       0.00035737      -0.00017791
H        5.61209586       3.24015570      29.01669236        0       1.00000000       0.00051271       0.00041634       0.00040904      -0.00169362      -0.00003773      -0.00104000
H        2.80542594       3.24026177      29.01750274        0       1.00000000       0.00029221       0.00070530       0.00049905       0.00011367       0.00022893      -0.00152641
H        4.20991331       0.80977318      29.01735761        0       1.00000000      -0.00039289      -0.00049354      -0.00064225       0.00017284      -0.00203697      -0.00113607
H        2.80568059       1.62009063      26.79090870        0       1.00000000       0.00111011       0.00030621       0.00002656      -0.00238466       0.00306949       0.00161547
20
Lattice="5.612310241546866 0.0 0.0 0.0 4.860403243099165 0.0 0.0 0.0 44.58243212332868" Properties=species:S:1:pos:R:3:tags:I:1:masses:R:1:momenta:R:3:forces:R:3 KEmax=25.851991011651638 iter=200703 volume=1216.1236359717223 set_wall=T ns_energy=-13.63437431470131 last_walked_iter_clone=200316 energy=-13.63437728246701 stress="0.0253635122962489 -2.095849246643443e-06 4.262969894459073e-06 -2.095849246643443e-06 0.02537215701629749 8.721699195468457e-06 4.262969894459073e-06 8.721699195468457e-06 0.011626400512909914" pbc="T T F"
H        1.40307756       0.81006721      20.00000000        3       1.00000000       0.00000000       0.00000000       0.00000000       0.00000000       0.00000000       0.00000000
H        4.20923268       0.81006721      20.00000000        3       1.00000000       0.00000000       0.00000000       0.00000000       0.00000000       0.00000000       0.00000000
H        0.00000000       3.24026883      20.00000000        3       1.00000000       0.00000000       0.00000000       0.00000000       0.00000000       0.00000000       0.00000000
H        2.80615512       3.24026883      20.00000000        3       1.00000000       0.00000000       0.00000000       0.00000000       0.00000000       0.00000000       0.00000000
H        0.00000000       1.62013441      22.29121606        2       1.00000000       0.00000000       0.00000000       0.00000000       0.00000000       0.00000000       0.00000000
H        2.80615512       1.62013441      22.29121606        2       1.00000000       0.00000000       0.00000000       0.00000000       0.00000000       0.00000000       0.00000000
H        1.40307756       4.05033604      22.29121606        2       1.00000000       0.00000000       0.00000000       0.00000000       0.00000000       0.00000000       0.00000000
H        4.20923268       4.05033604      22.29121606        2       1.00000000       0.00000000       0.00000000       0.00000000       0.00000000       0.00000000       0.00000000
H        0.00000000       0.00000000      24.58243212        1       1.00000000       0.00000000       0.00000000       0.00000000       0.00000000       0.00000000       0.00000000
H        2.80615512       0.00000000      24.58243212        1       1.00000000       0.00000000       0.00000000       0.00000000       0.00000000       0.00000000       0.00000000
H        1.40307756       2.43020162      24.58243212        1       1.00000000       0.00000000       0.00000000       0.00000000       0.00000000       0.00000000       0.00000000
H        4.20923268       2.43020162      24.58243212        1       1.00000000       0.00000000       0.00000000       0.00000000       0.00000000       0.00000000       0.00000000
H        4.20840365       4.05113896      26.79141485        0       1.00000000       0.00117230       0.00008345      -0.00024374       0.00114595      -0.00204395       0.00319436
H        1.40288241       4.04993791      26.79160964        0       1.00000000       0.00090645      -0.00014000      -0.00079704      -0.00020233       0.00017228      -0.00321035
H        5.61197327       1.62054451      26.79078700        0       1.00000000       0.00028729       0.00019311      -0.00117562       0.00165107       0.00081784      -0.00093327
H        1.40211399       0.80998173      29.01780015        0       1.00000000       0.00038613      -0.00117616       0.00089316       0.00106617       0.00035737      -0.00017791
H        5.61144654       3.23991004      29.01729376        0       1.00000000      -0.00055600      -0.00066177      -0.00113775      -0.00169362      -0.00003773      -0.00104000
H        2.80511640       3.24070539      29.01821733        0       1.00000000      -0.00071870       0.00014868      -0.00030536       0.00011367       0.00022893      -0.00152641
H        4.20840265       0.81011948      29.01779765        0       1.00000000      -0.00009999       0.00016388      -0.00042676       0.00017284      -0.00203697      -0.00113607
H        2.80588473       1.62078752      26.79141529        0       1.00000000       0.00028990      -0.00010851       0.00069774      -0.00238466       0.00306949       0.00161547
20
Lattice="5.612310241546866 0.0 0.0 0.0 4.860403243099165 0.0 0.0 0.0 44.58243212332868" Properties=species:S:1:pos:R:3:tags:I:1:masses:R:1:momenta:R:3:forces:R:3 KEmax=25.851991011651638 iter=200703 volume=1216.1236359717223 set_wall=T ns_energy=-13.634374320852864 last_walked_iter_clone=200320 energy=-13.63437728246701 stress="0.0253635122962489 -2.095849246643443e-06 4.262969894459073e-06 -2.095849246643443e-06 0.02537215701629749 8.721699195468457e-06 4.262969894459073e-06 8.721699195468457e-06 0.011626400512909914" pbc="T T F"
H        1.40307756       0.81006721      20.00000000        3       1.00000000       0.00000000       0.00000000       0.00000000       0.00000000       0.00000000       0.00000000