20
Lattice="5.612310241546866 0.0 0.0 0.0 4.860403243099165 0.0 0.0 0.0 44.58243212332868" Properties=species:S:1:pos:R:3:tags:I:1:masses:R:1:momenta:R:3:forces:R:3 KEmax=25.851991011651638 iter=94706 volume=1216.1236359717223 set_wall=T ns_energy=-13.594229111312803 last_walked_iter_clone=94466 energy=-13.618831470315547 stress="0.024234429931606433 -0.0002542726767955038 0.0006255433021051389 -0.0002542726767955038 0.025459450911051215 0.0012577257751176523 0.0006255433021051389 0.0012577257751176523 0.011025426074031387" pbc="T T F"
H        1.40307756       0.81006721      20.00000000        3       1.00000000       0.00000000       0.00000000       0.00000000       0.00000000       0.00000000       0.00000000
H        4.20923268       0.81006721      20.00000000        3       1.00000000       0.00000000       0.00000000       0.00000000       0.00000000       0.00000000       0.00000000
H        0.00000000       3.24026883      20.00000000        3       1.00000000       0.00000000       0.00000000       0.00000000       0.00000000       0.00000000       0.00000000
H        2.80615512       3.24026883      20.00000000        3       1.00000000       0.00000000       0.00000000       0.00000000       0.00000000       0.00000000       0.00000000
H        0.00000000       1.62013441      22.29121606        2       1.00000000       0.00000000       0.00000000       0.00000000       0.00000000       0.00000000       0.00000000
H        2.80615512       1.62013441      22.29121606        2       1.00000000       0.00000000       0.00000000       0.00000000       0.00000000       0.00000000       0.00000000
H        1.40307756       4.05033604      22.29121606        2       1.00000000       0.00000000       0.00000000       0.00000000       0.00000000       0.00000000       0.00000000
H        4.20923268       4.05033604      22.29121606        2       1.00000000       0.00000000       0.00000000       0.00000000       0.00000000       0.00000000       0.00000000
H        0.00000000       0.00000000      24.58243212        1       1.00000000       0.00000000       0.00000000       0.00000000       0.00000000       0.00000000       0.00000000
H        2.80615512       0.00000000      24.58243212        1       1.00000000       0.00000000       0.00000000       0.00000000       0.00000000       0.00000000       0.00000000
H        1.40307756       2.43020162      24.58243212        1       1.00000000       0.00000000       0.00000000       0.00000000       0.00000000       0.00000000       0.00000000
H        4.20923268       2.43020162      24.58243212        1       1.00000000       0.00000000       0.00000000       0.00000000       0.00000000       0.00000000       0.00000000
H        4.25328210       4.10295772      26.76965274        0       1.00000000      -0.02885018      -0.00780052       0.06410936       0.02625183      -0.00280158      -0.05384420
H        1.45004641       4.04491605      26.79717483        0       1.00000000      -0.00905846      -0.03077592      -0.05606052      -0.10481796       0.01559317      -0.02691823
H        0.03036685       1.62404382      26.78466908        0       1.00000000       0.06161558      -0.07571503       0.03099791       0.01382815      -0.00273338       0.01275619
H        1.48557755       0.85421924      29.02922601        0       1.00000000       0.03455115       0.04860140      -0.02085150       0.09290256      -0.03228282      -0.03576824
H        0.03811181       3.27062336      29.02231954        0       1.00000000      -0.02844111      -0.00832196       0.03820610       0.05664238      -0.06003872       0.03552383
H        2.88944196       3.29508752      29.02779054        0       1.00000000      -0.04318374      -0.01713655       0.02001874      -0.07003841       0.02069152       0.11989474
H        4.30416251       0.81960490      29.05330486        0       1.00000000      -0.03172135      -0.04680143      -0.05827603      -0.01562023      -0.13109832      -0.03116125
H        2.87715373       1.65430555      26.83236200        0       1.00000000      -0.03834082      -0.02265050      -0.05888611      -0.10281837       0.07668520       0.13538012
20
Lattice="5.612310241546866 0.0 0.0 0.0 4.860403243099165 0.0 0.0 0.0 44.58243212332868" Properties=species:S:1:pos:R:3:tags:I:1:masses:R:1:momenta:R:3:forces:R:3 KEmax=25.851991011651638 iter=94706 volume=1216.1236359717223 set_wall=T ns_energy=-13.594096532981302 last_walked_iter_clone=94571 energy=-13.618831470315547 stress="0.024234429931606433 -0.0002542726767955038 0.0006255433021051389 -0.0002542726767955038 0.025459450911051215 0.0012577257751176523 0.0006255433021051389 0.0012577257751176523 0.011025426074031387" pbc="T T F"
H        1.40307756       0.81006721      20.00000000        3       1.00000000       0.00000000       0.00000000       0.00000000       0.00000000       0.00000000       0.00000000
H        4.20923268       0.81006721      20.00000000        3       1.00000000       0.00000000       0.00000000       0.00000000       0.00000000       0.00000000       0.00000000
H        0.00000000       3.24026883      20.00000000        3       1.00000000       0.00000000       0.00000000       0.00000000       0.00000000       0.00000000       0.00000000
H        2.80615512       3.24026883      20.00000000        3       1.00000000       0.00000000       0.00000000       0.00000000       0.00000000       0.00000000       0.00000000
H        0.00000000       1.62013441      22.29121606        2       1.00000000       0.00000000       0.00000000       0.00000000       0.00000000       0.00000000       0.00000000
H        2.80615512       1.62013441      22.29121606        2       1.00000000       0.00000000       0.00000000       0.00000000       0.00000000       0.00000000       0.00000000
H        1.40307756       4.05033604      22.29121606        2       1.00000000       0.00000000       0.00000000       0.00000000       0.00000000       0.00000000       0.00000000
H        4.20923268       4.05033604      22.29121606        2       1.00000000       0.00000000       0.00000000       0.00000000       0.00000000       0.00000000       0.00000000
H        0.00000000       0.00000000      24.58243212        1       1.00000000       0.00000000       0.00000000       0.00000000       0.00000000       0.00000000       0.00000000
H        2.80615512       0.00000000      24.58243212        1       1.00000000       0.00000000       0.00000000       0.00000000       0.00000000       0.00000000       0.00000000
H        1.40307756       2.43020162      24.58243212        1       1.00000000       0.00000000       0.00000000       0.00000000       0.00000000       0.00000000       0.00000000
H        4.20923268       2.43020162      24.58243212        1       1.00000000       0.00000000       0.00000000       0.00000000       0.00000000       0.00000000       0.00000000
H        4.26285793       4.02813937      26.79433535        0       1.00000000       0.04251643       0.08390300       0.05868832       0.02625183      -0.00280158      -0.05384420
H        1.40670208       4.02844829      26.79706343        0       1.00000000       0.03781762       0.01331837      -0.03041653      -0.10481796       0.01559317      -0.02691823
H       -0.01243537       1.64223177      26.82128480        0       1.00000000       0.01972108       0.02247151      -0.01201875       0.01382815      -0.00273338       0.01275619
H        1.41743537       0.74700485      29.02544283        0       1.00000000      -0.05036397      -0.01147048       0.03677298       0.09290256      -0.03228282      -0.03576824
H        5.64193634       3.19613254      29.01732535        0       1.00000000       0.03607484      -0.03997290       0.05769563       0.05664238      -0.06003872       0.03552383
H        2.81228754       3.20306145      28.98633521        0       1.00000000       0.06564377      -0.05419989       0.03779923      -0.07003841       0.02069152       0.11989474
H        4.19936133       0.78539163      29.02125045        0       1.00000000      -0.05227854       0.08416187      -0.01373083      -0.01562023      -0.13109832      -0.03116125
H        2.80864983       1.59935058      26.77317323        0       1.00000000      -0.01324894       0.02437666       0.01325829      -0.10281837       0.07668520       0.13538012
20
Lattice="5.612310241546866 0.0 0.0 0.0 4.860403243099165 0.0 0.0 0.0 44.58243212332868" Properties=species:S:1:pos:R:3:tags:I:1:masses:R:1:momenta:R:3:forces:R:3 KEmax=25.851991011651638 iter=94706 volume=1216.1236359717223 set_wall=T ns_energy=-13.594175021995872 last_walked_iter_clone=94567 energy=-13.618831470315547 stress="0.024234429931606433 -0.0002542726767955038 0.0006255433021051389 -0.0002542726767955038 0.025459450911051215 0.0012577257751176523 0.0006255433021051389 0.0012577257751176523 0.011025426074031387" pbc="T T F"
H        1.40307756       0.81006721      20.00000000        3       1.00000000       0.00000000       0.00000000       0.00000000       0.00000000       0.00000000       0.00000000
H        4.20923268       0.81006721      20.00000000        3       1.00000000       0.00000000       0.00000000       0.00000000       0.00000000       0.00000000       0.00000000
H        0.00000000       3.24026883      20.00000000        3       1.00000000       0.00000000       0.00000000       0.00000000       0.00000000       0.00000000       0.00000000
H        2.80615512       3.24026883      20.00000000        3       1.00000000       0.00000000       0.00000000       0.00000000       0.00000000       0.00000000       0.00000000
H        0.00000000       1.62013441      22.29121606        2       1.00000000       0.00000000       0.00000000       0.00000000       0.00000000       0.00000000       0.00000000
H        2.80615512       1.62013441      22.29121606        2       1.00000000       0.00000000       0.00000000       0.00000000       0.00000000       0.00000000       0.00000000
H        1.40307756       4.05033604      22.29121606        2       1.00000000       0.00000000       0.00000000       0.00000000       0.00000000       0.00000000       0.00000000
H        4.20923268       4.05033604      22.29121606        2       1.00000000       0.00000000       0.00000000       0.00000000       0.00000000       0.00000000       0.00000000
H        0.00000000       0.00000000      24.58243212        1       1.00000000       0.00000000       0.00000000       0.00000000       0.00000000       0.00000000       0.00000000
H        2.80615512       0.00000000      24.58243212        1       1.00000000       0.00000000       0.00000000       0.00000000       0.00000000       0.00000000       0.00000000
H        1.40307756       2.43020162      24.58243212        1       1.00000000       0.00000000       0.00000000       0.00000000       0.00000000       0.00000000       0.00000000
H        4.20923268       2.43020162      24.58243212        1       1.00000000       0.00000000       0.00000000       0.00000000       0.00000000       0.00000000       0.00000000
H        2.85376457       3.27974251      29.04690506        0       1.00000000      -0.03474426       0.07524348       0.02251876       0.02625183      -0.00280158      -0.05384420
H        1.40661849       0.83529150      29.09940719        0       1.00000000      -0.06550954      -0.04539456       0.01649786      -0.10481796       0.01559317      -0.02691823
H        0.05066178       3.27174511      29.03245094        0       1.00000000       0.06271693      -0.00037455       0.01045948       0.01382815      -0.00273338       0.01275619
H        4.23254440       0.80030096      29.01139106        0       1.00000000      -0.04023227       0.03007419       0.04395533       0.09290256      -0.03228282      -0.03576824
H        1.43602925       4.03647740      26.79435630        0       1.00000000      -0.00605335      -0.04263884      -0.01137724       0.05664238      -0.06003872       0.03552383
H        0.03023584       1.63044767      26.77669330        0       1.00000000      -0.08719767      -0.01472175      -0.02063792      -0.07003841       0.02069152       0.11989474
H        2.79963601       1.64169468      26.80966369        0       1.00000000       0.01124966      -0.03414209      -0.02174313      -0.01562023      -0.13109832      -0.03116125
H        4.24882484       4.07540659      26.75985771        0       1.00000000       0.02400941       0.00031949      -0.02879593      -0.10281837       0.07668520       0.13538012
20
Lattice="5.612310241546866 0.0 0.0 0.0 4.860403243099165 0.0 0.0 0.0 44.58243212332868" Properties=species:S:1:pos:R:3:tags:I:1:masses:R:1:momenta:R:3:forces:R:3 KEmax=25.851991011651638 iter=94706 volume=1216.1236359717223 set_wall=T ns_energy=-13.594072010777117 last_walked_iter_clone=94533 energy=-13.618831470315547 stress="0.024234429931606433 -0.0002542726767955038 0.0006255433021051389 -0.0002542726767955038 0.025459450911051215 0.0012577257751176523 0.0006255433021051389 0.0012577257751176523 0.011025426074031387" pbc="T T F"
H        1.40307756       0.81006721      20.00000000        3       1.00000000       0.00000000       0.00000000       0.00000000       0.00000000       0.00000000       0.00000000
H        4.20923268       0.81006721      20.00000000        3       1.00000000       0.00000000       0.00000000       0.00000000       0.00000000       0.00000000       0.00000000
H        0.00000000       3.24026883      20.00000000        3       1.00000000       0.00000000       0.00000000       0.00000000       0.00000000       0.00000000       0.00000000
H        2.80615512       3.24026883      20.00000000        3       1.00000000       0.00000000       0.00000000       0.00000000       0.00000000       0.00000000       0.00000000
H        0.00000000       1.62013441      22.29121606        2       1.00000000       0.00000000       0.00000000       0.00000000       0.00000000       0.00000000       0.00000000
H        2.80615512       1.62013441      22.29121606        2       1.00000000       0.00000000       0.00000000       0.00000000       0.00000000       0.00000000       0.00000000
H        1.40307756       4.05033604      22.29121606        2       1.00000000       0.00000000       0.00000000       0.00000000       0.00000000       0.00000000       0.00000000
H        4.20923268       4.05033604      22.29121606        2       1.00000000       0.00000000       0.00000000       0.00000000       0.00000000       0.00000000       0.00000000
H        0.00000000       0.00000000      24.58243212        1       1.00000000       0.00000000       0.00000000       0.00000000       0.00000000       0.00000000       0.00000000
H        2.80615512       0.00000000      24.58243212        1       1.00000000       0.00000000       0.00000000       0.00000000       0.00000000       0.00000000       0.00000000
H        1.40307756       2.43020162      24.58243212        1       1.00000000       0.00000000       0.00000000       0.00000000       0.00000000       0.00000000       0.00000000
H        4.20923268       2.43020162      24.58243212        1       1.00000000       0.00000000       0.00000000       0.00000000       0.00000000       0.00000000       0.00000000
H        4.16721449       4.01682151      26.81723946        0       1.00000000       0.06854107       0.00670064      -0.05178518       0.02625183      -0.00280158      -0.05384420
H        1.37447946       3.98580649      26.75323272        0       1.00000000       0.05696708      -0.00733172       0.10135332      -0.10481796       0.01559317      -0.02691823
H        5.59032021       1.54231420      26.78721633        0       1.00000000      -0.03011581      -0.03210919      -0.02864663       0.01382815      -0.00273338       0.01275619
H        1.40086382       0.74091112      29.02269042        0       1.00000000      -0.04176428      -0.02408954      -0.00177064       0.09290256      -0.03228282      -0.03576824
H        5.55810569       3.16232499      29.02256201        0       1.00000000       0.02078742       0.02638259       0.07991921       0.05664238      -0.06003872       0.03552383
H        2.75659933       3.22473097      29.00453942        0       1.00000000       0.02643117      -0.01182842       0.00758229      -0.07003841       0.02069152       0.11989474
H        4.18371886       0.75421297      29.05061387        0       1.00000000       0.00143818      -0.03037083       0.00516655      -0.01562023      -0.13109832      -0.03116125
H        2.76728663       1.58231265      26.80406424        0       1.00000000      -0.03611080      -0.01820244       0.03459467      -0.10281837       0.07668520       0.13538012
20
Lattice="5.612310241546866 0.0 0.0 0.0 4.860403243099165 0.0 0.0 0.0 44.58243212332868" Properties=species:S:1:pos:R:3:tags:I:1:masses:R:1:momenta:R:3:forces:R:3 KEmax=25.851991011651638 iter=94706 volume=1216.1236359717223 set_wall=T ns_energy=-13.594041759614756 last_walked_iter_clone=94154 energy=-13.618831470315547 stress="0.024234429931606433 -0.0002542726767955038 0.0006255433021051389 -0.0002542726767955038 0.025459450911051215 0.0012577257751176523 0.0006255433021051389 0.0012577257751176523 0.011025426074031387" pbc="T T F"
H        1.40307756       0.81006721      20.00000000        3       1.00000000       0.00000000       0.00000000       0.00000000       0.00000000       0.00000000       0.00000000
H        4.20923268       0.81006721      20.00000000        3       1.00000000       0.00000000       0.00000000       0.00000000       0.00000000       0.00000000       0.00000000
H        0.00000000       3.24026883      20.00000000        3       1.00000000       0.00000000       0.00000000       0.00000000       0.00000000       0.00000000       0.00000000
H        2.80615512       3.24026883      20.00000000        3       1.00000000       0.00000000       0.00000000       0.00000000       0.00000000       0.00000000       0.00000000
H        0.00000000       1.62013441      22.29121606        2       1.00000000       0.00000000       0.00000000       0.00000000       0.00000000       0.00000000       0.00000000
H        2.80615512       1.62013441      22.29121606        2       1.00000000       0.00000000       0.00000000       0.00000000       0.00000000       0.00000000       0.00000000
H        1.40307756       4.05033604      22.29121606        2       1.00000000       0.00000000       0.00000000       0.00000000       0.00000000       0.00000000       0.00000000
H        4.20923268       4.05033604      22.29121606        2       1.00000000       0.00000000       0.00000000       0.00000000       0.00000000       0.00000000       0.00000000
H        0.00000000       0.00000000      24.58243212        1       1.00000000       0.00000000       0.00000000       0.00000000       0.00000000       0.00000000       0.00000000
H        2.80615512       0.00000000      24.58243212        1       1.00000000       0.00000000       0.00000000       0.00000000       0.00000000       0.00000000       0.00000000
H        1.40307756       2.43020162      24.58243212        1       1.00000000       0.00000000       0.00000000       0.00000000       0.00000000       0.00000000       0.00000000
H        4.20923268       2.43020162      24.58243212        1       1.00000000       0.00000000       0.00000000       0.00000000       0.00000000       0.00000000       0.00000000
H        4.20403188       4.05787475      26.80527495        0       1.00000000       0.03929306       0.04876848       0.07064753       0.02625183      -0.00280158      -0.05384420
H        1.34903648       4.06637802      26.78476762        0       1.00000000      -0.02649502       0.02183025      -0.01807109      -0.10481796       0.01559317      -0.02691823
H        5.63000828       1.62282058      26.78754636        0       1.00000000       0.01330733      -0.00218426       0.04046225       0.01382815      -0.00273338       0.01275619
H        1.34806883       0.79747884      29.02807388        0       1.00000000      -0.01638579      -0.00625192       0.03652867       0.09290256      -0.03228282      -0.03576824
H        5.57636373       3.25808001      29.08008529        0       1.00000000       0.03889118       0.04018907       0.04466936       0.05664238      -0.06003872       0.03552383
H        2.73333496       3.20308653      28.95761768        0       1.00000000       0.07022270      -0.02028659      -0.06497174      -0.07003841       0.02069152       0.11989474
H        4.14186965       0.80914112      29.02765202        0       1.00000000       0.07046349       0.03004192       0.00164598      -0.01562023      -0.13109832      -0.03116125
H        2.77621822       1.62144229      26.77235238        0       1.00000000      -0.04957572       0.01327744       0.01955609      -0.10281837       0.07668520       0.13538012
20
Lattice="5.612310241546866 0.0 0.0 0.0 4.860403243099165 0.0 0.0 0.0 44.58243212332868" Properties=species:S:1:pos:R:3:tags:I:1:masses:R:1:momenta:R:3:forces:R:3 KEmax=25.851991011651638 iter=94706 volume=1216.1236359717223 set_wall=T ns_energy=-13.594340609033708 last_walked_iter_clone=94003 energy=-13.618831470315547 stress="0.024234429931606433 -0.0002542726767955038 0.0006255433021051389 -0.0002542726767955038 0.025459450911051215 0.0012577257751176523 0.0006255433021051389 0.0012577257751176523 0.011025426074031387" pbc="T T F"
H        1.40307756       0.81006721      20.00000000        3       1.00000000       0.00000000       0.00000000       0.00000000       0.00000000       0.00000000       0.00000000
H        4.20923268       0.81006721      20.00000000        3       1.00000000       0.00000000       0.00000000       0.00000000       0.00000000       0.00000000       0.00000000
H        0.00000000       3.24026883      20.00000000        3       1.00000000       0.00000000       0.00000000       0.00000000       0.00000000       0.00000000       0.00000000
H        2.80615512       3.24026883      20.00000000        3       1.00000000       0.00000000       0.00000000       0.00000000       0.00000000       0.00000000       0.00000000
H        0.00000000       1.62013441      22.29121606        2       1.00000000       0.00000000       0.00000000       0.00000000       0.00000000       0.00000000       0.00000000
H        2.80615512       1.62013441      22.29121606        2       1.00000000       0.00000000       0.00000000       0.00000000       0.00000000       0.00000000       0.00000000
H        1.40307756       4.05033604      22.29121606        2       1.00000000       0.00000000       0.00000000       0.00000000       0.00000000       0.00000000       0.00000000
H        4.20923268       4.05033604      22.29121606        2       1.00000000       0.00000000       0.00000000       0.00000000       0.00000000       0.00000000       0.00000000
H        0.00000000       0.00000000      24.58243212        1       1.00000000       0.00000000       0.00000000       0.00000000       0.00000000       0.00000000       0.00000000
H        2.80615512       0.00000000      24.58243212        1       1.00000000       0.00000000       0.00000000       0.00000000       0.00000000       0.00000000       0.00000000
H        1.40307756       2.43020162      24.58243212        1       1.00000000       0.00000000       0.00000000       0.00000000       0.00000000       0.00000000       0.00000000
H        4.20923268       2.43020162      24.58243212        1       1.00000000       0.00000000       0.00000000       0.00000000       0.00000000       0.00000000       0.00000000
H        4.25817779       4.00540702      26.78398457        0       1.00000000       0.01448042      -0.07011032      -0.02145173       0.02625183      -0.00280158      -0.05384420
H        1.45474942       4.02626661      26.77294678        0       1.00000000      -0.05755200       0.03646429       0.02778848      -0.10481796       0.01559317      -0.02691823
H        0.01127506       1.58373618      26.79500060        0       1.00000000       0.00106002      -0.03275568       0.00187058       0.01382815      -0.00273338       0.01275619
H        1.49529134       0.74175767      28.98797072        0       1.00000000      -0.00439152      -0.00950191      -0.01079378       0.09290256      -0.03228282      -0.03576824
H        0.07993161       3.20472702      29.05107606        0       1.00000000      -0.05725051       0.05558002       0.01592501       0.05664238      -0.06003872       0.03552383
H        2.88636630       3.14741702      29.08654734        0       1.00000000       0.03679616      -0.04509706       0.01577054      -0.07003841       0.02069152       0.11989474
H        4.29407555       0.75002827      29.01364154        0       1.00000000       0.05744915       0.01918764      -0.05275928      -0.01562023      -0.13109832      -0.03116125
H        2.84877669       1.64211207      26.79307005        0       1.00000000       0.00721742      -0.01820989      -0.02309936      -0.10281837       0.07668520       0.13538012
20
Lattice="5.612310241546866 0.0 0.0 0.0 4.860403243099165 0.0 0.0 0.0 44.58243212332868" Properties=species:S:1:pos:R:3:tags:I:1:masses:R:1:momenta:R:3:forces:R:3 KEmax=25.851991011651638 iter=94706 volume=1216.1236359717223 set_wall=T ns_energy=-13.593986928489135 last_walked_iter_clone=94321 energy=-13.618831470315547 stress="0.024234429931606433 -0.0002542726767955038 0.0006255433021051389 -0.0002542726767955038 0.025459450911051215 0.0012577257751176523 0.0006255433021051389 0.0012577257751176523 0.011025426074031387" pbc="T T F"
H        1.40307756       0.81006721      20.00000000        3       1.00000000       0.00000000       0.00000000       0.00000000       0.00000000       0.00000000       0.00000000
H        4.20923268       0.81006721      20.00000000        3       1.00000000       0.00000000       0.00000000       0.00000000       0.00000000       0.00000000       0.00000000
H        0.00000000       3.24026883      20.00000000        3       1.00000000       0.00000000       0.00000000       0.00000000       0.00000000       0.00000000       0.00000000
H        2.80615512       3.24026883      20.00000000        3       1.00000000       0.00000000       0.00000000       0.00000000       0.00000000       0.00000000       0.00000000
H        0.00000000       1.62013441      22.29121606        2       1.00000000       0.00000000       0.00000000       0.00000000       0.00000000       0.00000000       0.00000000
H        2.80615512       1.62013441      22.29121606        2       1.00000000       0.00000000       0.00000000       0.00000000       0.00000000       0.00000000       0.00000000
H        1.40307756       4.05033604      22.29121606        2       1.00000000       0.00000000       0.00000000       0.00000000       0.00000000       0.00000000       0.00000000
H        4.20923268       4.05033604      22.29121606        2       1.00000000       0.00000000       0.00000000       0.00000000       0.00000000       0.00000000       0.00000000
H        0.00000000       0.00000000      24.58243212        1       1.00000000       0.00000000       0.00000000       0.00000000       0.00000000       0.00000000       0.00000000
H        2.80615512       0.00000000      24.58243212        1       1.00000000       0.00000000       0.00000000       0.00000000       0.00000000       0.00000000       0.00000000
H        1.40307756       2.43020162      24.58243212        1       1.00000000       0.00000000       0.00000000       0.00000000       0.00000000       0.00000000       0.00000000
H        4.20923268       2.43020162      24.58243212        1       1.00000000       0.00000000       0.00000000       0.00000000       0.00000000       0.00000000       0.00000000
H        4.23467914       4.04650858      26.82855286        0       1.00000000       0.02280016      -0.04111397      -0.01423739       0.02625183      -0.00280158      -0.05384420
H        1.39000446       4.06076417      26.80788395        0       1.00000000       0.03960304      -0.05127918       0.00269679      -0.10481796       0.01559317      -0.02691823
H        5.59489485       1.64821456      26.82838735        0       1.00000000      -0.04176365      -0.00318915       0.01063758       0.01382815      -0.00273338       0.01275619
H        1.35815390       0.73675790      29.00195601        0       1.00000000      -0.02221626       0.03883521       0.03410951       0.09290256      -0.03228282      -0.03576824
H        5.55738340       3.20185730      29.02623848        0       1.00000000       0.03031389       0.01121092       0.00484310       0.05664238      -0.06003872       0.03552383
H        2.74550701       3.20093564      29.03145956        0       1.00000000      -0.01474152      -0.09769506       0.00029071      -0.07003841       0.02069152       0.11989474
H        4.17760415       0.75352851      29.05556013        0       1.00000000       0.02971721       0.01587853      -0.03052262      -0.01562023      -0.13109832      -0.03116125
H        2.81321394       1.60019620      26.84166458        0       1.00000000      -0.00230262      -0.00471977       0.03893984      -0.10281837       0.07668520       0.13538012
20
Lattice="5.612310241546866 0.0 0.0 0.0 4.860403243099165 0.0 0.0 0.0 44.58243212332868" Properties=species:S:1:pos:R:3:tags:I:1:masses:R:1:momenta:R:3:forces:R:3 KEmax=25.851991011651638 iter=94706 volume=1216.1236359717223 set_wall=T ns_energy=-13.59428561543616 last_walked_iter_clone=94408 energy=-13.618831470315547 stress="0.024234429931606433 -0.0002542726767955038 0.0006255433021051389 -0.0002542726767955038 0.025459450911051215 0.0012577257751176523 0.0006255433021051389 0.0012577257751176523 0.011025426074031387" pbc="T T F"
H        1.40307756       0.81006721      20.00000000        3       1.00000000       0.00000000       0.00000000       0.00000000       0.00000000       0.00000000       0.00000000