20
Lattice="5.612310241546866 0.0 0.0 0.0 4.860403243099165 0.0 0.0 0.0 44.58243212332868" Properties=species:S:1:pos:R:3:tags:I:1:masses:R:1:momenta:R:3:forces:R:3 KEmax=25.851991011651638 iter=150077 volume=1216.1236359717223 set_wall=T ns_energy=-13.633860912749878 last_walked_iter_clone=149943 energy=-13.634073342264855 stress="0.02534612987570762 -1.855808527207576e-05 3.6694651955022606e-05 -1.855808527207576e-05 0.02530973880883455 -3.4684062136036905e-05 3.6694651955022606e-05 -3.4684062136036905e-05 0.011486281005176862" pbc="T T F"
H        1.40307756       0.81006721      20.00000000        3       1.00000000       0.00000000       0.00000000       0.00000000       0.00000000       0.00000000       0.00000000
H        4.20923268       0.81006721      20.00000000        3       1.00000000       0.00000000       0.00000000       0.00000000       0.00000000       0.00000000       0.00000000
H        0.00000000       3.24026883      20.00000000        3       1.00000000       0.00000000       0.00000000       0.00000000       0.00000000       0.00000000       0.00000000
H        2.80615512       3.24026883      20.00000000        3       1.00000000       0.00000000       0.00000000       0.00000000       0.00000000       0.00000000       0.00000000
H        0.00000000       1.62013441      22.29121606        2       1.00000000       0.00000000       0.00000000       0.00000000       0.00000000       0.00000000       0.00000000
H        2.80615512       1.62013441      22.29121606        2       1.00000000       0.00000000       0.00000000       0.00000000       0.00000000       0.00000000       0.00000000
H        1.40307756       4.05033604      22.29121606        2       1.00000000       0.00000000       0.00000000       0.00000000       0.00000000       0.00000000       0.00000000
H        4.20923268       4.05033604      22.29121606        2       1.00000000       0.00000000       0.00000000       0.00000000       0.00000000       0.00000000       0.00000000
H        0.00000000       0.00000000      24.58243212        1       1.00000000       0.00000000       0.00000000       0.00000000       0.00000000       0.00000000       0.00000000
H        2.80615512       0.00000000      24.58243212        1       1.00000000       0.00000000       0.00000000       0.00000000       0.00000000       0.00000000       0.00000000
H        1.40307756       2.43020162      24.58243212        1       1.00000000       0.00000000       0.00000000       0.00000000       0.00000000       0.00000000       0.00000000
H        4.20923268       2.43020162      24.58243212        1       1.00000000       0.00000000       0.00000000       0.00000000       0.00000000       0.00000000       0.00000000
H        4.21249702       4.05486503      26.78937742        0       1.00000000      -0.00118088       0.00484767       0.00428074       0.00331985      -0.00213423      -0.01267503
H        1.40214971       4.05569438      26.79409028        0       1.00000000      -0.01233350      -0.00098425      -0.00052668      -0.00708915       0.01919683      -0.01907368
H       -0.00203651       1.62145640      26.79088458        0       1.00000000      -0.00483990      -0.00085435       0.00274620       0.00398476       0.00956566      -0.01558434
H        1.40241856       0.80727470      29.02040380        0       1.00000000       0.00756659      -0.00036196      -0.00432391      -0.00310536       0.00784841      -0.00086075
H        5.61691253       3.23513875      29.01850267        0       1.00000000       0.00986124       0.00262459       0.00142535      -0.00617655      -0.01700811      -0.00083813
H        2.81141438       3.23677449      29.02096342        0       1.00000000       0.00297891      -0.00067584       0.00068507       0.00740478      -0.00790918       0.02329105
H        4.20546938       0.80990526      29.01780877        0       1.00000000       0.00004309       0.00210906      -0.00092215       0.00190646       0.01301686       0.01321104
H        2.80588620       1.62345593      26.79061840        0       1.00000000       0.00223043      -0.00363861       0.00719137      -0.00431735      -0.01468704      -0.01474476
20
Lattice="5.612310241546866 0.0 0.0 0.0 4.860403243099165 0.0 0.0 0.0 44.58243212332868" Properties=species:S:1:pos:R:3:tags:I:1:masses:R:1:momenta:R:3:forces:R:3 KEmax=25.851991011651638 iter=150077 volume=1216.1236359717223 set_wall=T ns_energy=-13.633859195294013 last_walked_iter_clone=149904 energy=-13.634073342264855 stress="0.02534612987570762 -1.855808527207576e-05 3.6694651955022606e-05 -1.855808527207576e-05 0.02530973880883455 -3.4684062136036905e-05 3.6694651955022606e-05 -3.4684062136036905e-05 0.011486281005176862" pbc="T T F"
H        1.40307756       0.81006721      20.00000000        3       1.00000000       0.00000000       0.00000000       0.00000000       0.00000000       0.00000000       0.00000000
H        4.20923268       0.81006721      20.00000000        3       1.00000000       0.00000000       0.00000000       0.00000000       0.00000000       0.00000000       0.00000000
H        0.00000000       3.24026883      20.00000000        3       1.00000000       0.00000000       0.00000000       0.00000000       0.00000000       0.00000000       0.00000000
H        2.80615512       3.24026883      20.00000000        3       1.00000000       0.00000000       0.00000000       0.00000000       0.00000000       0.00000000       0.00000000
H        0.00000000       1.62013441      22.29121606        2       1.00000000       0.00000000       0.00000000       0.00000000       0.00000000       0.00000000       0.00000000
H        2.80615512       1.62013441      22.29121606        2       1.00000000       0.00000000       0.00000000       0.00000000       0.00000000       0.00000000       0.00000000
H        1.40307756       4.05033604      22.29121606        2       1.00000000       0.00000000       0.00000000       0.00000000       0.00000000       0.00000000       0.00000000
H        4.20923268       4.05033604      22.29121606        2       1.00000000       0.00000000       0.00000000       0.00000000       0.00000000       0.00000000       0.00000000
H        0.00000000       0.00000000      24.58243212        1       1.00000000       0.00000000       0.00000000       0.00000000       0.00000000       0.00000000       0.00000000
H        2.80615512       0.00000000      24.58243212        1       1.00000000       0.00000000       0.00000000       0.00000000       0.00000000       0.00000000       0.00000000
H        1.40307756       2.43020162      24.58243212        1       1.00000000       0.00000000       0.00000000       0.00000000       0.00000000       0.00000000       0.00000000
H        4.20923268       2.43020162      24.58243212        1       1.00000000       0.00000000       0.00000000       0.00000000       0.00000000       0.00000000       0.00000000
H        4.20062115       4.05154253      26.78992417        0       1.00000000       0.00671395       0.00304049       0.00628664       0.00331985      -0.00213423      -0.01267503
H        1.39560529       4.04997038      26.79149880        0       1.00000000      -0.00343768      -0.01206708      -0.00260259      -0.00708915       0.01919683      -0.01907368
H        5.60401419       1.61556850      26.79026925        0       1.00000000       0.00706521       0.00025046       0.00599943       0.00398476       0.00956566      -0.01558434
H        1.39648765       0.80410019      29.01657761        0       1.00000000       0.00197001       0.00480468      -0.00189200      -0.00310536       0.00784841      -0.00086075
H        5.60067929       3.23389636      29.01508551        0       1.00000000      -0.00036448      -0.00414824      -0.00641610      -0.00617655      -0.01700811      -0.00083813
H        2.79481689       3.23656036      29.01435940        0       1.00000000      -0.00198160      -0.00417801       0.00093237       0.00740478      -0.00790918       0.02329105
H        4.20121777       0.80708057      29.01694931        0       1.00000000       0.00043802       0.00147374       0.00456622       0.00190646       0.01301686       0.01321104
H        2.79942802       1.62185968      26.79430866        0       1.00000000       0.00088475      -0.00594460      -0.00487866      -0.00431735      -0.01468704      -0.01474476
20
Lattice="5.612310241546866 0.0 0.0 0.0 4.860403243099165 0.0 0.0 0.0 44.58243212332868" Properties=species:S:1:pos:R:3:tags:I:1:masses:R:1:momenta:R:3:forces:R:3 KEmax=25.851991011651638 iter=150077 volume=1216.1236359717223 set_wall=T ns_energy=-13.633860406857645 last_walked_iter_clone=149390 energy=-13.634073342264855 stress="0.02534612987570762 -1.855808527207576e-05 3.6694651955022606e-05 -1.855808527207576e-05 0.02530973880883455 -3.4684062136036905e-05 3.6694651955022606e-05 -3.4684062136036905e-05 0.011486281005176862" pbc="T T F"
H        1.40307756       0.81006721      20.00000000        3       1.00000000       0.00000000       0.00000000       0.00000000       0.00000000       0.00000000       0.00000000
H        4.20923268       0.81006721      20.00000000        3       1.00000000       0.00000000       0.00000000       0.00000000       0.00000000       0.00000000       0.00000000
H        0.00000000       3.24026883      20.00000000        3       1.00000000       0.00000000       0.00000000       0.00000000       0.00000000       0.00000000       0.00000000
H        2.80615512       3.24026883      20.00000000        3       1.00000000       0.00000000       0.00000000       0.00000000       0.00000000       0.00000000       0.00000000
H        0.00000000       1.62013441      22.29121606        2       1.00000000       0.00000000       0.00000000       0.00000000       0.00000000       0.00000000       0.00000000
H        2.80615512       1.62013441      22.29121606        2       1.00000000       0.00000000       0.00000000       0.00000000       0.00000000       0.00000000       0.00000000
H        1.40307756       4.05033604      22.29121606        2       1.00000000       0.00000000       0.00000000       0.00000000       0.00000000       0.00000000       0.00000000
H        4.20923268       4.05033604      22.29121606        2       1.00000000       0.00000000       0.00000000       0.00000000       0.00000000       0.00000000       0.00000000
H        0.00000000       0.00000000      24.58243212        1       1.00000000       0.00000000       0.00000000       0.00000000       0.00000000       0.00000000       0.00000000
H        2.80615512       0.00000000      24.58243212        1       1.00000000       0.00000000       0.00000000       0.00000000       0.00000000       0.00000000       0.00000000
H        1.40307756       2.43020162      24.58243212        1       1.00000000       0.00000000       0.00000000       0.00000000       0.00000000       0.00000000       0.00000000
H        4.20923268       2.43020162      24.58243212        1       1.00000000       0.00000000       0.00000000       0.00000000       0.00000000       0.00000000       0.00000000
H        4.20893939       4.04240482      26.79109726        0       1.00000000      -0.00411770      -0.00357678       0.00065575       0.00331985      -0.00213423      -0.01267503
H        1.40409055       4.05276787      26.79071774        0       1.00000000      -0.00299496      -0.01082534      -0.00545489      -0.00708915       0.01919683      -0.01907368
H        0.00052204       1.61763699      26.79194809        0       1.00000000       0.00207998       0.00657017       0.00364436       0.00398476       0.00956566      -0.01558434
H        1.40501317       0.81216323      29.02260595        0       1.00000000       0.00186781       0.00302482      -0.00133071      -0.00310536       0.00784841      -0.00086075
H        5.61681716       3.24098421      29.01588162        0       1.00000000       0.01016993       0.00271589       0.00375417      -0.00617655      -0.01700811      -0.00083813
H        2.81348735       3.24080602      29.01389728        0       1.00000000       0.00026059       0.00558153      -0.00176986       0.00740478      -0.00790918       0.02329105
H        4.21361672       0.80951763      29.01888166        0       1.00000000      -0.00473995       0.00263240      -0.00183284       0.00190646       0.01301686       0.01321104
H        2.81042490       1.62023547      26.79342655        0       1.00000000       0.00401547      -0.00051954      -0.00274519      -0.00431735      -0.01468704      -0.01474476
20
Lattice="5.612310241546866 0.0 0.0 0.0 4.860403243099165 0.0 0.0 0.0 44.58243212332868" Properties=species:S:1:pos:R:3:tags:I:1:masses:R:1:momenta:R:3:forces:R:3 KEmax=25.851991011651638 iter=150077 volume=1216.1236359717223 set_wall=T ns_energy=-13.633859537641769 last_walked_iter_clone=148985 energy=-13.634073342264855 stress="0.02534612987570762 -1.855808527207576e-05 3.6694651955022606e-05 -1.855808527207576e-05 0.02530973880883455 -3.4684062136036905e-05 3.6694651955022606e-05 -3.4684062136036905e-05 0.011486281005176862" pbc="T T F"
H        1.40307756       0.81006721      20.00000000        3       1.00000000       0.00000000       0.00000000       0.00000000       0.00000000       0.00000000       0.00000000
H        4.20923268       0.81006721      20.00000000        3       1.00000000       0.00000000       0.00000000       0.00000000       0.00000000       0.00000000       0.00000000
H        0.00000000       3.24026883      20.00000000        3       1.00000000       0.00000000       0.00000000       0.00000000       0.00000000       0.00000000       0.00000000
H        2.80615512       3.24026883      20.00000000        3       1.00000000       0.00000000       0.00000000       0.00000000       0.00000000       0.00000000       0.00000000
H        0.00000000       1.62013441      22.29121606        2       1.00000000       0.00000000       0.00000000       0.00000000       0.00000000       0.00000000       0.00000000
H        2.80615512       1.62013441      22.29121606        2       1.00000000       0.00000000       0.00000000       0.00000000       0.00000000       0.00000000       0.00000000
H        1.40307756       4.05033604      22.29121606        2       1.00000000       0.00000000       0.00000000       0.00000000       0.00000000       0.00000000       0.00000000
H        4.20923268       4.05033604      22.29121606        2       1.00000000       0.00000000       0.00000000       0.00000000       0.00000000       0.00000000       0.00000000
H        0.00000000       0.00000000      24.58243212        1       1.00000000       0.00000000       0.00000000       0.00000000       0.00000000       0.00000000       0.00000000
H        2.80615512       0.00000000      24.58243212        1       1.00000000       0.00000000       0.00000000       0.00000000       0.00000000       0.00000000       0.00000000
H        1.40307756       2.43020162      24.58243212        1       1.00000000       0.00000000       0.00000000       0.00000000       0.00000000       0.00000000       0.00000000
H        4.20923268       2.43020162      24.58243212        1       1.00000000       0.00000000       0.00000000       0.00000000       0.00000000       0.00000000       0.00000000
H        4.20812219       4.04792476      26.79637715        0       1.00000000       0.00746159      -0.00740814      -0.00461907       0.00331985      -0.00213423      -0.01267503
H        1.40511207       4.04761469      26.79559670        0       1.00000000       0.00885961      -0.00399251      -0.00331145      -0.00708915       0.01919683      -0.01907368
H        5.61583478       1.61648695      26.79275370        0       1.00000000      -0.00457044      -0.00285297       0.00678357       0.00398476       0.00956566      -0.01558434
H        1.40728262       0.81018601      29.02201486        0       1.00000000       0.00280019      -0.00321369       0.01013324      -0.00310536       0.00784841      -0.00086075
H        0.00202386       3.24194356      29.02021344        0       1.00000000       0.00119404      -0.00160648       0.00884688      -0.00617655      -0.01700811      -0.00083813
H        2.80849104       3.23747037      29.02225188        0       1.00000000      -0.00384102      -0.00578884       0.00211013       0.00740478      -0.00790918       0.02329105
H        4.21246632       0.81415937      29.02101198        0       1.00000000      -0.00764532       0.00051595       0.00290722       0.00190646       0.01301686       0.01321104
H        2.80883193       1.61621269      26.79498757        0       1.00000000      -0.00054916       0.00272193       0.00172896      -0.00431735      -0.01468704      -0.01474476
20
Lattice="5.612310241546866 0.0 0.0 0.0 4.860403243099165 0.0 0.0 0.0 44.58243212332868" Properties=species:S:1:pos:R:3:tags:I:1:masses:R:1:momenta:R:3:forces:R:3 KEmax=25.851991011651638 iter=150077 volume=1216.1236359717223 set_wall=T ns_energy=-13.633860066960196 last_walked_iter_clone=149527 energy=-13.634073342264855 stress="0.02534612987570762 -1.855808527207576e-05 3.6694651955022606e-05 -1.855808527207576e-05 0.02530973880883455 -3.4684062136036905e-05 3.6694651955022606e-05 -3.4684062136036905e-05 0.011486281005176862" pbc="T T F"
H        1.40307756       0.81006721      20.00000000        3       1.00000000       0.00000000       0.00000000       0.00000000       0.00000000       0.00000000       0.00000000
H        4.20923268       0.81006721      20.00000000        3       1.00000000       0.00000000       0.00000000       0.00000000       0.00000000       0.00000000       0.00000000
H        0.00000000       3.24026883      20.00000000        3       1.00000000       0.00000000       0.00000000       0.00000000       0.00000000       0.00000000       0.00000000
H        2.80615512       3.24026883      20.00000000        3       1.00000000       0.00000000       0.00000000       0.00000000       0.00000000       0.00000000       0.00000000
H        0.00000000       1.62013441      22.29121606        2       1.00000000       0.00000000       0.00000000       0.00000000       0.00000000       0.00000000       0.00000000
H        2.80615512       1.62013441      22.29121606        2       1.00000000       0.00000000       0.00000000       0.00000000       0.00000000       0.00000000       0.00000000
H        1.40307756       4.05033604      22.29121606        2       1.00000000       0.00000000       0.00000000       0.00000000       0.00000000       0.00000000       0.00000000
H        4.20923268       4.05033604      22.29121606        2       1.00000000       0.00000000       0.00000000       0.00000000       0.00000000       0.00000000       0.00000000
H        0.00000000       0.00000000      24.58243212        1       1.00000000       0.00000000       0.00000000       0.00000000       0.00000000       0.00000000       0.00000000
H        2.80615512       0.00000000      24.58243212        1       1.00000000       0.00000000       0.00000000       0.00000000       0.00000000       0.00000000       0.00000000
H        1.40307756       2.43020162      24.58243212        1       1.00000000       0.00000000       0.00000000       0.00000000       0.00000000       0.00000000       0.00000000
H        4.20923268       2.43020162      24.58243212        1       1.00000000       0.00000000       0.00000000       0.00000000       0.00000000       0.00000000       0.00000000
H        4.20539436       4.05329878      26.78999230        0       1.00000000      -0.00139671       0.00009706      -0.00448034       0.00331985      -0.00213423      -0.01267503
H        1.40033690       4.05378893      26.79373610        0       1.00000000       0.00661836       0.00349195      -0.00000294      -0.00708915       0.01919683      -0.01907368
H        5.60893035       1.61796235      26.79295684        0       1.00000000      -0.00305212       0.00315644      -0.00129245       0.00398476       0.00956566      -0.01558434
H        1.39812026       0.81042574      29.02439727        0       1.00000000      -0.00298687      -0.00931484      -0.00692956      -0.00310536       0.00784841      -0.00086075
H       -0.01180397       3.23937249      29.01188846        0       1.00000000       0.00429355      -0.00612935      -0.00547435      -0.00617655      -0.01700811      -0.00083813
H        2.79590877       3.24233091      29.02132435        0       1.00000000      -0.00497529      -0.00360255      -0.00037341       0.00740478      -0.00790918       0.02329105
H        4.20172838       0.81331406      29.02172831        0       1.00000000      -0.00149257      -0.00015224       0.00130264       0.00190646       0.01301686       0.01321104
H        2.80340907       1.62365841      26.79624485        0       1.00000000      -0.00139943      -0.00842859       0.00768495      -0.00431735      -0.01468704      -0.01474476
20
Lattice="5.612310241546866 0.0 0.0 0.0 4.860403243099165 0.0 0.0 0.0 44.58243212332868" Properties=species:S:1:pos:R:3:tags:I:1:masses:R:1:momenta:R:3:forces:R:3 KEmax=25.851991011651638 iter=150077 volume=1216.1236359717223 set_wall=T ns_energy=-13.633862278479782 last_walked_iter_clone=149834 energy=-13.634073342264855 stress="0.02534612987570762 -1.855808527207576e-05 3.6694651955022606e-05 -1.855808527207576e-05 0.02530973880883455 -3.4684062136036905e-05 3.6694651955022606e-05 -3.4684062136036905e-05 0.011486281005176862" pbc="T T F"
H        1.40307756       0.81006721      20.00000000        3       1.00000000       0.00000000       0.00000000       0.00000000       0.00000000       0.00000000       0.00000000
H        4.20923268       0.81006721      20.00000000        3       1.00000000       0.00000000       0.00000000       0.00000000       0.00000000       0.00000000       0.00000000
H        0.00000000       3.24026883      20.00000000        3       1.00000000       0.00000000       0.00000000       0.00000000       0.00000000       0.00000000       0.00000000
H        2.80615512       3.24026883      20.00000000        3       1.00000000       0.00000000       0.00000000       0.00000000       0.00000000       0.00000000       0.00000000
H        0.00000000       1.62013441      22.29121606        2       1.00000000       0.00000000       0.00000000       0.00000000       0.00000000       0.00000000       0.00000000
H        2.80615512       1.62013441      22.29121606        2       1.00000000       0.00000000       0.00000000       0.00000000       0.00000000       0.00000000       0.00000000
H        1.40307756       4.05033604      22.29121606        2       1.00000000       0.00000000       0.00000000       0.00000000       0.00000000       0.00000000       0.00000000
H        4.20923268       4.05033604      22.29121606        2       1.00000000       0.00000000       0.00000000       0.00000000       0.00000000       0.00000000       0.00000000
H        0.00000000       0.00000000      24.58243212        1       1.00000000       0.00000000       0.00000000       0.00000000       0.00000000       0.00000000       0.00000000
H        2.80615512       0.00000000      24.58243212        1       1.00000000       0.00000000       0.00000000       0.00000000       0.00000000       0.00000000       0.00000000
H        1.40307756       2.43020162      24.58243212        1       1.00000000       0.00000000       0.00000000       0.00000000       0.00000000       0.00000000       0.00000000
H        4.20923268       2.43020162      24.58243212        1       1.00000000       0.00000000       0.00000000       0.00000000       0.00000000       0.00000000       0.00000000
H        4.21113844       4.06037930      26.78880868        0       1.00000000      -0.00113730      -0.00003290      -0.00080242       0.00331985      -0.00213423      -0.01267503
H        1.40574225       4.05944780      26.79140446        0       1.00000000       0.00395894      -0.00326443       0.01053695      -0.00708915       0.01919683      -0.01907368
H        5.61669513       1.62488625      26.79113951        0       1.00000000       0.00501947      -0.00175644       0.00037519       0.00398476       0.00956566      -0.01558434
H        1.40596749       0.82049314      29.01911054        0       1.00000000       0.00559418       0.00574165       0.00270262      -0.00310536       0.00784841      -0.00086075
H        0.00314264       3.24902411      29.02063652        0       1.00000000      -0.00328709      -0.00281357       0.00506860      -0.00617655      -0.01700811      -0.00083813
H        2.81442929       3.25124144      29.02203990        0       1.00000000       0.00597410      -0.00086170      -0.00523894       0.00740478      -0.00790918       0.02329105
H        4.21226344       0.81730024      29.01802780        0       1.00000000      -0.00091742      -0.00876031       0.00046984       0.00190646       0.01301686       0.01321104
H        2.80970765       1.62487863      26.79293166        0       1.00000000       0.00241568       0.00035902       0.00411403      -0.00431735      -0.01468704      -0.01474476
20
Lattice="5.612310241546866 0.0 0.0 0.0 4.860403243099165 0.0 0.0 0.0 44.58243212332868" Properties=species:S:1:pos:R:3:tags:I:1:masses:R:1:momenta:R:3:forces:R:3 KEmax=25.851991011651638 iter=150077 volume=1216.1236359717223 set_wall=T ns_energy=-13.633865188510532 last_walked_iter_clone=149825 energy=-13.634073342264855 stress="0.02534612987570762 -1.855808527207576e-05 3.6694651955022606e-05 -1.855808527207576e-05 0.02530973880883455 -3.4684062136036905e-05 3.6694651955022606e-05 -3.4684062136036905e-05 0.011486281005176862" pbc="T T F"
H        1.40307756       0.81006721      20.00000000        3       1.00000000       0.00000000       0.00000000       0.00000000       0.00000000       0.00000000       0.00000000
H        4.20923268       0.81006721      20.00000000        3       1.00000000       0.00000000       0.00000000       0.00000000       0.00000000       0.00000000       0.00000000
H        0.00000000       3.24026883      20.00000000        3       1.00000000       0.00000000       0.00000000       0.00000000       0.00000000       0.00000000       0.00000000
H        2.80615512       3.24026883      20.00000000        3       1.00000000       0.00000000       0.00000000       0.00000000       0.00000000       0.00000000       0.00000000
H        0.00000000       1.62013441      22.29121606        2       1.00000000       0.00000000       0.00000000       0.00000000       0.00000000       0.00000000       0.00000000
H        2.80615512       1.62013441      22.29121606        2       1.00000000       0.00000000       0.00000000       0.00000000       0.00000000       0.00000000       0.00000000
H        1.40307756       4.05033604      22.29121606        2       1.00000000       0.00000000       0.00000000       0.00000000       0.00000000       0.00000000       0.00000000
H        4.20923268       4.05033604      22.29121606        2       1.00000000       0.00000000       0.00000000       0.00000000       0.00000000       0.00000000       0.00000000
H        0.00000000       0.00000000      24.58243212        1       1.00000000       0.00000000       0.00000000       0.00000000       0.00000000       0.00000000       0.00000000
H        2.80615512       0.00000000      24.58243212        1       1.00000000       0.00000000       0.00000000       0.00000000       0.00000000       0.00000000       0.00000000
H        1.40307756       2.43020162      24.58243212        1       1.00000000       0.00000000       0.00000000       0.00000000       0.00000000       0.00000000       0.00000000
H        4.20923268       2.43020162      24.58243212        1       1.00000000       0.00000000       0.00000000       0.00000000       0.00000000       0.00000000       0.00000000
H        4.20884796       4.04764461      26.79277447        0       1.00000000      -0.00747665       0.00574463       0.00355635       0.00331985      -0.00213423      -0.01267503
H        1.39915639       4.04590328      26.79034360        0       1.00000000      -0.00023159       0.00362386       0.00494026      -0.00708915       0.01919683      -0.01907368
H        0.00120313       1.61986700      26.79137907        0       1.00000000       0.00391559       0.00173887      -0.00420314       0.00398476       0.00956566      -0.01558434
H        1.40677382       0.81328377      29.01314181        0       1.00000000       0.00300018      -0.00199590      -0.00725738      -0.00310536       0.00784841      -0.00086075
H        0.00898639       3.23989607      29.02268633        0       1.00000000       0.00340705      -0.00318517      -0.00292614      -0.00617655      -0.01700811      -0.00083813
H        2.81586452       3.24573960      29.01715578        0       1.00000000       0.00109709      -0.00418618      -0.00074968       0.00740478      -0.00790918       0.02329105
H        4.21598518       0.81524801      29.01778281        0       1.00000000       0.00115961      -0.00386374       0.00335472       0.00190646       0.01301686       0.01321104
H        2.80969739       1.61636233      26.79352719        0       1.00000000      -0.00725309      -0.00303022      -0.00409976      -0.00431735      -0.01468704      -0.01474476
20
Lattice="5.612310241546866 0.0 0.0 0.0 4.860403243099165 0.0 0.0 0.0 44.58243212332868" Properties=species:S:1:pos:R:3:tags:I:1:masses:R:1:momenta:R:3:forces:R:3 KEmax=25.851991011651638 iter=150077 volume=1216.1236359717223 set_wall=T ns_energy=-13.633863617080383 last_walked_iter_clone=149918 energy=-13.634073342264855 stress="0.02534612987570762 -1.855808527207576e-05 3.6694651955022606e-05 -1.855808527207576e-05 0.02530973880883455 -3.4684062136036905e-05 3.6694651955022606e-05 -3.4684062136036905e-05 0.011486281005176862" pbc="T T F"