19
Lattice="5.612310241546866 0.0 0.0 0.0 4.860403243099165 0.0 0.0 0.0 24.582432123328676" Properties=species:S:1:pos:R:3:tags:I:1:masses:R:1:momenta:R:3:forces:R:3 KEmax=24.559391461069055 iter=59140 volume=670.5618179858607 ns_energy=-12.522440289777778 last_walked_iter_clone=59117 energy=-12.522440740084178 stress="0.008830358040467785 9.054776744878829e-07 -2.3690207575664435e-06 9.054776744878829e-07 0.008877881733223897 7.964073485200532e-07 -2.3690207575664435e-06 7.964073485200532e-07 0.004712299659130975" pbc="T T T"
H        1.40307756       0.81006721      10.00000000        3       1.00000000       0.00000000       0.00000000       0.00000000       0.00000000       0.00000000       0.00000000
H        4.20923268       0.81006721      10.00000000        3       1.00000000       0.00000000       0.00000000       0.00000000       0.00000000       0.00000000       0.00000000
H        0.00000000       3.24026883      10.00000000        3       1.00000000       0.00000000       0.00000000       0.00000000       0.00000000       0.00000000       0.00000000
H        2.80615512       3.24026883      10.00000000        3       1.00000000       0.00000000       0.00000000       0.00000000       0.00000000       0.00000000       0.00000000
H        0.00000000       1.62013441      12.29121606        2       1.00000000       0.00000000       0.00000000       0.00000000       0.00000000       0.00000000       0.00000000
H        2.80615512       1.62013441      12.29121606        2       1.00000000       0.00000000       0.00000000       0.00000000       0.00000000       0.00000000       0.00000000
H        1.40307756       4.05033604      12.29121606        2       1.00000000       0.00000000       0.00000000       0.00000000       0.00000000       0.00000000       0.00000000
H        4.20923268       4.05033604      12.29121606        2       1.00000000       0.00000000       0.00000000       0.00000000       0.00000000       0.00000000       0.00000000
H        0.00000000       0.00000000      14.58243212        1       1.00000000       0.00000000       0.00000000       0.00000000       0.00000000       0.00000000       0.00000000
H        2.80615512       0.00000000      14.58243212        1       1.00000000       0.00000000       0.00000000       0.00000000       0.00000000       0.00000000       0.00000000
H        1.40307756       2.43020162      14.58243212        1       1.00000000       0.00000000       0.00000000       0.00000000       0.00000000       0.00000000       0.00000000
H        4.20923268       2.43020162      14.58243212        1       1.00000000       0.00000000       0.00000000       0.00000000       0.00000000       0.00000000       0.00000000
H        2.80925563       4.86030463       7.77170999        0       1.00000000       0.00009681       0.00020327       0.00023978      -0.00000009      -0.00029396      -0.00006146
H        4.20943995       4.05026803      16.81101110        0       1.00000000       0.00028478       0.00030060       0.00018784       0.00017884      -0.00067636       0.00006250
H        1.40322173       4.05047771      16.81107849        0       1.00000000      -0.00041707       0.00025185       0.00003417       0.00009762      -0.00082598       0.00008086
H        2.80640588       1.62003062      16.81091842        0       1.00000000       0.00016329       0.00006015      -0.00022972       0.00029998       0.00101615      -0.00011325
H        5.60907947      -0.00008566       7.77181840        0       1.00000000      -0.00020880       0.00001776       0.00018117      -0.00057280       0.00033263       0.00000897
H        1.40302938       2.43013594       7.77177279        0       1.00000000      -0.00022851      -0.00029353       0.00019509       0.00020444      -0.00003344      -0.00006738
H        0.00025122       1.62007721      16.81117180        0       1.00000000      -0.00045422       0.00016227       0.00022461      -0.00023377       0.00025231      -0.00011163
19
Lattice="5.612310241546866 0.0 0.0 0.0 4.860403243099165 0.0 0.0 0.0 24.582432123328676" Properties=species:S:1:pos:R:3:tags:I:1:masses:R:1:momenta:R:3:forces:R:3 KEmax=24.559391461069055 iter=59140 volume=670.5618179858607 ns_energy=-12.522440258659527 last_walked_iter_clone=59051 energy=-12.522440740084178 stress="0.008830358040467785 9.054776744878829e-07 -2.3690207575664435e-06 9.054776744878829e-07 0.008877881733223897 7.964073485200532e-07 -2.3690207575664435e-06 7.964073485200532e-07 0.004712299659130975" pbc="T T T"
H        1.40307756       0.81006721      10.00000000        3       1.00000000       0.00000000       0.00000000       0.00000000       0.00000000       0.00000000       0.00000000
H        4.20923268       0.81006721      10.00000000        3       1.00000000       0.00000000       0.00000000       0.00000000       0.00000000       0.00000000       0.00000000
H        0.00000000       3.24026883      10.00000000        3       1.00000000       0.00000000       0.00000000       0.00000000       0.00000000       0.00000000       0.00000000
H        2.80615512       3.24026883      10.00000000        3       1.00000000       0.00000000       0.00000000       0.00000000       0.00000000       0.00000000       0.00000000
H        0.00000000       1.62013441      12.29121606        2       1.00000000       0.00000000       0.00000000       0.00000000       0.00000000       0.00000000       0.00000000
H        2.80615512       1.62013441      12.29121606        2       1.00000000       0.00000000       0.00000000       0.00000000       0.00000000       0.00000000       0.00000000
H        1.40307756       4.05033604      12.29121606        2       1.00000000       0.00000000       0.00000000       0.00000000       0.00000000       0.00000000       0.00000000
H        4.20923268       4.05033604      12.29121606        2       1.00000000       0.00000000       0.00000000       0.00000000       0.00000000       0.00000000       0.00000000
H        0.00000000       0.00000000      14.58243212        1       1.00000000       0.00000000       0.00000000       0.00000000       0.00000000       0.00000000       0.00000000
H        2.80615512       0.00000000      14.58243212        1       1.00000000       0.00000000       0.00000000       0.00000000       0.00000000       0.00000000       0.00000000
H        1.40307756       2.43020162      14.58243212        1       1.00000000       0.00000000       0.00000000       0.00000000       0.00000000       0.00000000       0.00000000
H        4.20923268       2.43020162      14.58243212        1       1.00000000       0.00000000       0.00000000       0.00000000       0.00000000       0.00000000       0.00000000
H        2.80923705      -0.00019035       7.77170212        0       1.00000000       0.00020946       0.00008659       0.00005284      -0.00000009      -0.00029396      -0.00006146
H        4.20918203       4.05013559      16.81101118        0       1.00000000      -0.00006724       0.00002690       0.00011149       0.00017884      -0.00067636       0.00006250
H        1.40300039       4.05005675      16.81105433        0       1.00000000       0.00011476       0.00039490      -0.00024071       0.00009762      -0.00082598       0.00008086
H        2.80594129       1.61977855      16.81101840        0       1.00000000      -0.00031279      -0.00006931      -0.00037168       0.00029998       0.00101615      -0.00011325
H        5.60919171      -0.00017539       7.77170551        0       1.00000000       0.00002123      -0.00029809       0.00025726      -0.00057280       0.00033263       0.00000897
H        1.40312724       2.43017488       7.77170791        0       1.00000000      -0.00020958       0.00010161       0.00031374       0.00020444      -0.00003344      -0.00006738
H       -0.00003351       1.62028336      16.81109204        0       1.00000000       0.00017260       0.00006837       0.00021160      -0.00023377       0.00025231      -0.00011163
19
Lattice="5.612310241546866 0.0 0.0 0.0 4.860403243099165 0.0 0.0 0.0 24.582432123328676" Properties=species:S:1:pos:R:3:tags:I:1:masses:R:1:momenta:R:3:forces:R:3 KEmax=24.559391461069055 iter=59140 volume=670.5618179858607 ns_energy=-12.522440317810888 last_walked_iter_clone=59082 energy=-12.522440740084178 stress="0.008830358040467785 9.054776744878829e-07 -2.3690207575664435e-06 9.054776744878829e-07 0.008877881733223897 7.964073485200532e-07 -2.3690207575664435e-06 7.964073485200532e-07 0.004712299659130975" pbc="T T T"
H        1.40307756       0.81006721      10.00000000        3       1.00000000       0.00000000       0.00000000       0.00000000       0.00000000       0.00000000       0.00000000
H        4.20923268       0.81006721      10.00000000        3       1.00000000       0.00000000       0.00000000       0.00000000       0.00000000       0.00000000       0.00000000
H        0.00000000       3.24026883      10.00000000        3       1.00000000       0.00000000       0.00000000       0.00000000       0.00000000       0.00000000       0.00000000
H        2.80615512       3.24026883      10.00000000        3       1.00000000       0.00000000       0.00000000       0.00000000       0.00000000       0.00000000       0.00000000
H        0.00000000       1.62013441      12.29121606        2       1.00000000       0.00000000       0.00000000       0.00000000       0.00000000       0.00000000       0.00000000
H        2.80615512       1.62013441      12.29121606        2       1.00000000       0.00000000       0.00000000       0.00000000       0.00000000       0.00000000       0.00000000
H        1.40307756       4.05033604      12.29121606        2       1.00000000       0.00000000       0.00000000       0.00000000       0.00000000       0.00000000       0.00000000
H        4.20923268       4.05033604      12.29121606        2       1.00000000       0.00000000       0.00000000       0.00000000       0.00000000       0.00000000       0.00000000
H        0.00000000       0.00000000      14.58243212        1       1.00000000       0.00000000       0.00000000       0.00000000       0.00000000       0.00000000       0.00000000
H        2.80615512       0.00000000      14.58243212        1       1.00000000       0.00000000       0.00000000       0.00000000       0.00000000       0.00000000       0.00000000
H        1.40307756       2.43020162      14.58243212        1       1.00000000       0.00000000       0.00000000       0.00000000       0.00000000       0.00000000       0.00000000
H        4.20923268       2.43020162      14.58243212        1       1.00000000       0.00000000       0.00000000       0.00000000       0.00000000       0.00000000       0.00000000
H        2.80927214       0.00007017       7.77183823        0       1.00000000       0.00003487      -0.00012352      -0.00011736      -0.00000009      -0.00029396      -0.00006146
H        4.20941777       4.05030705      16.81097505        0       1.00000000      -0.00028829       0.00002869       0.00027814       0.00017884      -0.00067636       0.00006250
H        1.40322231       4.05042645      16.81098146        0       1.00000000       0.00001770       0.00056205      -0.00026490       0.00009762      -0.00082598       0.00008086
H        2.80630423       1.62021660      16.81117834        0       1.00000000      -0.00001869       0.00025467       0.00023928       0.00029998       0.00101615      -0.00011325
H        5.60930645       4.86064151       7.77165468        0       1.00000000      -0.00032836       0.00044360       0.00041316      -0.00057280       0.00033263       0.00000897
H        1.40317126       2.43036467       7.77167539        0       1.00000000       0.00005577      -0.00038188      -0.00003524       0.00020444      -0.00003344      -0.00006738
H        0.00011296       1.62019153      16.81103591        0       1.00000000       0.00007631      -0.00005231       0.00019451      -0.00023377       0.00025231      -0.00011163
19
Lattice="5.612310241546866 0.0 0.0 0.0 4.860403243099165 0.0 0.0 0.0 24.582432123328676" Properties=species:S:1:pos:R:3:tags:I:1:masses:R:1:momenta:R:3:forces:R:3 KEmax=24.559391461069055 iter=59140 volume=670.5618179858607 ns_energy=-12.522440267731115 last_walked_iter_clone=58910 energy=-12.522440740084178 stress="0.008830358040467785 9.054776744878829e-07 -2.3690207575664435e-06 9.054776744878829e-07 0.008877881733223897 7.964073485200532e-07 -2.3690207575664435e-06 7.964073485200532e-07 0.004712299659130975" pbc="T T T"
H        1.40307756       0.81006721      10.00000000        3       1.00000000       0.00000000       0.00000000       0.00000000       0.00000000       0.00000000       0.00000000
H        4.20923268       0.81006721      10.00000000        3       1.00000000       0.00000000       0.00000000       0.00000000       0.00000000       0.00000000       0.00000000
H        0.00000000       3.24026883      10.00000000        3       1.00000000       0.00000000       0.00000000       0.00000000       0.00000000       0.00000000       0.00000000
H        2.80615512       3.24026883      10.00000000        3       1.00000000       0.00000000       0.00000000       0.00000000       0.00000000       0.00000000       0.00000000
H        0.00000000       1.62013441      12.29121606        2       1.00000000       0.00000000       0.00000000       0.00000000       0.00000000       0.00000000       0.00000000
H        2.80615512       1.62013441      12.29121606        2       1.00000000       0.00000000       0.00000000       0.00000000       0.00000000       0.00000000       0.00000000
H        1.40307756       4.05033604      12.29121606        2       1.00000000       0.00000000       0.00000000       0.00000000       0.00000000       0.00000000       0.00000000
H        4.20923268       4.05033604      12.29121606        2       1.00000000       0.00000000       0.00000000       0.00000000       0.00000000       0.00000000       0.00000000
H        0.00000000       0.00000000      14.58243212        1       1.00000000       0.00000000       0.00000000       0.00000000       0.00000000       0.00000000       0.00000000
H        2.80615512       0.00000000      14.58243212        1       1.00000000       0.00000000       0.00000000       0.00000000       0.00000000       0.00000000       0.00000000
H        1.40307756       2.43020162      14.58243212        1       1.00000000       0.00000000       0.00000000       0.00000000       0.00000000       0.00000000       0.00000000
H        4.20923268       2.43020162      14.58243212        1       1.00000000       0.00000000       0.00000000       0.00000000       0.00000000       0.00000000       0.00000000
H        2.80908702       4.86051313       7.77175248        0       1.00000000       0.00046690       0.00004722       0.00010113      -0.00000009      -0.00029396      -0.00006146
H        4.20931781       4.05049178      16.81110042        0       1.00000000      -0.00011191      -0.00012545      -0.00023779       0.00017884      -0.00067636       0.00006250
H        1.40305280       4.05050328      16.81117858        0       1.00000000       0.00001219      -0.00020846      -0.00031102       0.00009762      -0.00082598       0.00008086
H        2.80601416       1.62041165      16.81074621        0       1.00000000       0.00001468      -0.00013418      -0.00020581       0.00029998       0.00101615      -0.00011325
H        5.60936794       0.00012665       7.77178523        0       1.00000000       0.00005506      -0.00009838       0.00010473      -0.00057280       0.00033263       0.00000897
H        1.40274506       2.43041217       7.77184653        0       1.00000000      -0.00011326       0.00019374       0.00024713       0.00020444      -0.00003344      -0.00006738
H       -0.00008925       1.62026222      16.81118401        0       1.00000000       0.00019700      -0.00032145       0.00027469      -0.00023377       0.00025231      -0.00011163
19
Lattice="5.612310241546866 0.0 0.0 0.0 4.860403243099165 0.0 0.0 0.0 24.582432123328676" Properties=species:S:1:pos:R:3:tags:I:1:masses:R:1:momenta:R:3:forces:R:3 KEmax=24.559391461069055 iter=59140 volume=670.5618179858607 ns_energy=-12.522440276149617 last_walked_iter_clone=59081 energy=-12.522440740084178 stress="0.008830358040467785 9.054776744878829e-07 -2.3690207575664435e-06 9.054776744878829e-07 0.008877881733223897 7.964073485200532e-07 -2.3690207575664435e-06 7.964073485200532e-07 0.004712299659130975" pbc="T T T"
H        1.40307756       0.81006721      10.00000000        3       1.00000000       0.00000000       0.00000000       0.00000000       0.00000000       0.00000000       0.00000000
H        4.20923268       0.81006721      10.00000000        3       1.00000000       0.00000000       0.00000000       0.00000000       0.00000000       0.00000000       0.00000000
H        0.00000000       3.24026883      10.00000000        3       1.00000000       0.00000000       0.00000000       0.00000000       0.00000000       0.00000000       0.00000000
H        2.80615512       3.24026883      10.00000000        3       1.00000000       0.00000000       0.00000000       0.00000000       0.00000000       0.00000000       0.00000000
H        0.00000000       1.62013441      12.29121606        2       1.00000000       0.00000000       0.00000000       0.00000000       0.00000000       0.00000000       0.00000000
H        2.80615512       1.62013441      12.29121606        2       1.00000000       0.00000000       0.00000000       0.00000000       0.00000000       0.00000000       0.00000000
H        1.40307756       4.05033604      12.29121606        2       1.00000000       0.00000000       0.00000000       0.00000000       0.00000000       0.00000000       0.00000000
H        4.20923268       4.05033604      12.29121606        2       1.00000000       0.00000000       0.00000000       0.00000000       0.00000000       0.00000000       0.00000000
H        0.00000000       0.00000000      14.58243212        1       1.00000000       0.00000000       0.00000000       0.00000000       0.00000000       0.00000000       0.00000000
H        2.80615512       0.00000000      14.58243212        1       1.00000000       0.00000000       0.00000000       0.00000000       0.00000000       0.00000000       0.00000000
H        1.40307756       2.43020162      14.58243212        1       1.00000000       0.00000000       0.00000000       0.00000000       0.00000000       0.00000000       0.00000000
H        4.20923268       2.43020162      14.58243212        1       1.00000000       0.00000000       0.00000000       0.00000000       0.00000000       0.00000000       0.00000000
H        2.80907677       0.00000108       7.77185370        0       1.00000000       0.00001031       0.00012018       0.00023917      -0.00000009      -0.00029396      -0.00006146
H        4.20916345       4.05025604      16.81102279        0       1.00000000       0.00000595       0.00019377       0.00009959       0.00017884      -0.00067636       0.00006250
H        1.40298021       4.05027809      16.81109962        0       1.00000000       0.00011540      -0.00013269       0.00021653       0.00009762      -0.00082598       0.00008086
H        2.80609412       1.61984738      16.81128458        0       1.00000000      -0.00013960       0.00028529      -0.00021959       0.00029998       0.00101615      -0.00011325
H        5.60931136       0.00013868       7.77176867        0       1.00000000       0.00027333      -0.00006265       0.00010209      -0.00057280       0.00033263       0.00000897
H        1.40282741       2.42999777       7.77188722        0       1.00000000       0.00021142      -0.00040347       0.00016675       0.00020444      -0.00003344      -0.00006738
H        0.00008608       1.61997032      16.81112577        0       1.00000000      -0.00037317      -0.00008090      -0.00006525      -0.00023377       0.00025231      -0.00011163
19
Lattice="5.612310241546866 0.0 0.0 0.0 4.860403243099165 0.0 0.0 0.0 24.582432123328676" Properties=species:S:1:pos:R:3:tags:I:1:masses:R:1:momenta:R:3:forces:R:3 KEmax=24.559391461069055 iter=59140 volume=670.5618179858607 ns_energy=-12.52244026201979 last_walked_iter_clone=59096 energy=-12.522440740084178 stress="0.008830358040467785 9.054776744878829e-07 -2.3690207575664435e-06 9.054776744878829e-07 0.008877881733223897 7.964073485200532e-07 -2.3690207575664435e-06 7.964073485200532e-07 0.004712299659130975" pbc="T T T"
H        1.40307756       0.81006721      10.00000000        3       1.00000000       0.00000000       0.00000000       0.00000000       0.00000000       0.00000000       0.00000000
H        4.20923268       0.81006721      10.00000000        3       1.00000000       0.00000000       0.00000000       0.00000000       0.00000000       0.00000000       0.00000000
H        0.00000000       3.24026883      10.00000000        3       1.00000000       0.00000000       0.00000000       0.00000000       0.00000000       0.00000000       0.00000000
H        2.80615512       3.24026883      10.00000000        3       1.00000000       0.00000000       0.00000000       0.00000000       0.00000000       0.00000000       0.00000000
H        0.00000000       1.62013441      12.29121606        2       1.00000000       0.00000000       0.00000000       0.00000000       0.00000000       0.00000000       0.00000000
H        2.80615512       1.62013441      12.29121606        2       1.00000000       0.00000000       0.00000000       0.00000000       0.00000000       0.00000000       0.00000000
H        1.40307756       4.05033604      12.29121606        2       1.00000000       0.00000000       0.00000000       0.00000000       0.00000000       0.00000000       0.00000000
H        4.20923268       4.05033604      12.29121606        2       1.00000000       0.00000000       0.00000000       0.00000000       0.00000000       0.00000000       0.00000000
H        0.00000000       0.00000000      14.58243212        1       1.00000000       0.00000000       0.00000000       0.00000000       0.00000000       0.00000000       0.00000000
H        2.80615512       0.00000000      14.58243212        1       1.00000000       0.00000000       0.00000000       0.00000000       0.00000000       0.00000000       0.00000000
H        1.40307756       2.43020162      14.58243212        1       1.00000000       0.00000000       0.00000000       0.00000000       0.00000000       0.00000000       0.00000000
H        4.20923268       2.43020162      14.58243212        1       1.00000000       0.00000000       0.00000000       0.00000000       0.00000000       0.00000000       0.00000000
H        2.80945881      -0.00000994       7.77178185        0       1.00000000       0.00025879       0.00000139      -0.00037348      -0.00000009      -0.00029396      -0.00006146
H        4.20914100       4.04998767      16.81099249        0       1.00000000      -0.00006826       0.00001982      -0.00031413       0.00017884      -0.00067636       0.00006250
H        1.40309067       4.05013418      16.81121545        0       1.00000000      -0.00032012       0.00040670       0.00013068       0.00009762      -0.00082598       0.00008086
H        2.80618119       1.61998484      16.81138282        0       1.00000000       0.00007214      -0.00000689       0.00004844       0.00029998       0.00101615      -0.00011325
H        5.60961811       4.86037615       7.77180606        0       1.00000000      -0.00012210       0.00024282       0.00013256      -0.00057280       0.00033263       0.00000897
H        1.40313217       2.43016405       7.77170129        0       1.00000000      -0.00002563      -0.00026155       0.00007650       0.00020444      -0.00003344      -0.00006738
H        5.61250193       1.61987847      16.81123231        0       1.00000000       0.00007699       0.00020298      -0.00008562      -0.00023377       0.00025231      -0.00011163
19
Lattice="5.612310241546866 0.0 0.0 0.0 4.860403243099165 0.0 0.0 0.0 24.582432123328676" Properties=species:S:1:pos:R:3:tags:I:1:masses:R:1:momenta:R:3:forces:R:3 KEmax=24.559391461069055 iter=59140 volume=670.5618179858607 ns_energy=-12.522440280894932 last_walked_iter_clone=59085 energy=-12.522440740084178 stress="0.008830358040467785 9.054776744878829e-07 -2.3690207575664435e-06 9.054776744878829e-07 0.008877881733223897 7.964073485200532e-07 -2.3690207575664435e-06 7.964073485200532e-07 0.004712299659130975" pbc="T T T"
H        1.40307756       0.81006721      10.00000000        3       1.00000000       0.00000000       0.00000000       0.00000000       0.00000000       0.00000000       0.00000000
H        4.20923268       0.81006721      10.00000000        3       1.00000000       0.00000000       0.00000000       0.00000000       0.00000000       0.00000000       0.00000000
H        0.00000000       3.24026883      10.00000000        3       1.00000000       0.00000000       0.00000000       0.00000000       0.00000000       0.00000000       0.00000000
H        2.80615512       3.24026883      10.00000000        3       1.00000000       0.00000000       0.00000000       0.00000000       0.00000000       0.00000000       0.00000000
H        0.00000000       1.62013441      12.29121606        2       1.00000000       0.00000000       0.00000000       0.00000000       0.00000000       0.00000000       0.00000000
H        2.80615512       1.62013441      12.29121606        2       1.00000000       0.00000000       0.00000000       0.00000000       0.00000000       0.00000000       0.00000000
H        1.40307756       4.05033604      12.29121606        2       1.00000000       0.00000000       0.00000000       0.00000000       0.00000000       0.00000000       0.00000000
H        4.20923268       4.05033604      12.29121606        2       1.00000000       0.00000000       0.00000000       0.00000000       0.00000000       0.00000000       0.00000000
H        0.00000000       0.00000000      14.58243212        1       1.00000000       0.00000000       0.00000000       0.00000000       0.00000000       0.00000000       0.00000000
H        2.80615512       0.00000000      14.58243212        1       1.00000000       0.00000000       0.00000000       0.00000000       0.00000000       0.00000000       0.00000000
H        1.40307756       2.43020162      14.58243212        1       1.00000000       0.00000000       0.00000000       0.00000000       0.00000000       0.00000000       0.00000000
H        4.20923268       2.43020162      14.58243212        1       1.00000000       0.00000000       0.00000000       0.00000000       0.00000000       0.00000000       0.00000000
H        2.80937679       4.86048993       7.77167094        0       1.00000000       0.00023041       0.00011191      -0.00017020      -0.00000009      -0.00029396      -0.00006146
H        4.20901489       4.05052203      16.81123086        0       1.00000000       0.00015530       0.00042992      -0.00020131       0.00017884      -0.00067636       0.00006250
H        1.40297341       4.05049689      16.81109055        0       1.00000000       0.00011774       0.00009166      -0.00018698       0.00009762      -0.00082598       0.00008086
H        2.80602269       1.62018277      16.81105804        0       1.00000000      -0.00002763       0.00017988       0.00002715       0.00029998       0.00101615      -0.00011325
H        5.60948046       4.86046964       7.77189485        0       1.00000000      -0.00006960       0.00006621       0.00013403      -0.00057280       0.00033263       0.00000897
H        1.40291235       2.43043827       7.77177770        0       1.00000000      -0.00008000       0.00003974      -0.00009576       0.00020444      -0.00003344      -0.00006738
H        5.61215230       1.62066487      16.81085918        0       1.00000000       0.00004869      -0.00022367       0.00000672      -0.00023377       0.00025231      -0.00011163
19
Lattice="5.612310241546866 0.0 0.0 0.0 4.860403243099165 0.0 0.0 0.0 24.582432123328676" Properties=species:S:1:pos:R:3:tags:I:1:masses:R:1:momenta:R:3:forces:R:3 KEmax=24.559391461069055 iter=59140 volume=670.5618179858607 ns_energy=-12.522440291724461 last_walked_iter_clone=59102 energy=-12.522440740084178 stress="0.008830358040467785 9.054776744878829e-07 -2.3690207575664435e-06 9.054776744878829e-07 0.008877881733223897 7.964073485200532e-07 -2.3690207575664435e-06 7.964073485200532e-07 0.004712299659130975" pbc="T T T"
H        1.40307756       0.81006721      10.00000000        3       1.00000000       0.00000000       0.00000000       0.00000000       0.00000000       0.00000000       0.00000000
H        4.20923268       0.81006721      10.00000000        3       1.00000000       0.00000000       0.00000000       0.00000000       0.00000000       0.00000000       0.00000000
H        0.00000000       3.24026883      10.00000000        3       1.00000000       0.00000000       0.00000000       0.00000000       0.00000000       0.00000000       0.00000000
H        2.80615512       3.24026883      10.00000000        3       1.00000000       0.00000000       0.00000000       0.00000000       0.00000000       0.00000000       0.00000000
H        0.00000000       1.62013441      12.29121606        2       1.00000000       0.00000000       0.00000000       0.00000000       0.00000000       0.00000000       0.00000000
H        2.80615512       1.62013441      12.29121606        2       1.00000000       0.00000000       0.00000000       0.00000000       0.00000000       0.00000000       0.00000000
H        1.40307756       4.05033604      12.29121606        2       1.00000000       0.00000000       0.00000000       0.00000000       0.00000000       0.00000000       0.00000000
H        4.20923268       4.05033604      12.29121606        2       1.00000000       0.00000000       0.00000000       0.00000000       0.00000000       0.00000000       0.00000000