19
Lattice="5.612310241546866 0.0 0.0 0.0 4.860403243099165 0.0 0.0 0.0 24.582432123328676" Properties=species:S:1:pos:R:3:tags:I:1:masses:R:1:momenta:R:3:forces:R:3 KEmax=24.559391461069055 iter=89358 volume=670.5618179858607 ns_energy=-12.52244115919905 last_walked_iter_clone=89207 energy=-12.522441159322579 stress="0.008830878568226895 -2.0860475647796027e-08 -2.7510979025416925e-08 -2.0860475647796027e-08 0.008877869417570882 -7.330165895780598e-09 -2.7510979025416925e-08 -7.330165895780598e-09 0.00471245529783917" pbc="T T T"
H        1.40307756       0.81006721      10.00000000        3       1.00000000       0.00000000       0.00000000       0.00000000       0.00000000       0.00000000       0.00000000
H        4.20923268       0.81006721      10.00000000        3       1.00000000       0.00000000       0.00000000       0.00000000       0.00000000       0.00000000       0.00000000
H        0.00000000       3.24026883      10.00000000        3       1.00000000       0.00000000       0.00000000       0.00000000       0.00000000       0.00000000       0.00000000
H        2.80615512       3.24026883      10.00000000        3       1.00000000       0.00000000       0.00000000       0.00000000       0.00000000       0.00000000       0.00000000
H        0.00000000       1.62013441      12.29121606        2       1.00000000       0.00000000       0.00000000       0.00000000       0.00000000       0.00000000       0.00000000
H        2.80615512       1.62013441      12.29121606        2       1.00000000       0.00000000       0.00000000       0.00000000       0.00000000       0.00000000       0.00000000
H        1.40307756       4.05033604      12.29121606        2       1.00000000       0.00000000       0.00000000       0.00000000       0.00000000       0.00000000       0.00000000
H        4.20923268       4.05033604      12.29121606        2       1.00000000       0.00000000       0.00000000       0.00000000       0.00000000       0.00000000       0.00000000
H        0.00000000       0.00000000      14.58243212        1       1.00000000       0.00000000       0.00000000       0.00000000       0.00000000       0.00000000       0.00000000
H        2.80615512       0.00000000      14.58243212        1       1.00000000       0.00000000       0.00000000       0.00000000       0.00000000       0.00000000       0.00000000
H        1.40307756       2.43020162      14.58243212        1       1.00000000       0.00000000       0.00000000       0.00000000       0.00000000       0.00000000       0.00000000
H        4.20923268       2.43020162      14.58243212        1       1.00000000       0.00000000       0.00000000       0.00000000       0.00000000       0.00000000       0.00000000
H        2.80919341       4.86039337       7.77172257        0       1.00000000       0.00000116      -0.00000209      -0.00000621       0.00001016       0.00000533       0.00000074
H        4.20922845       4.05033550      16.81106546        0       1.00000000      -0.00000017       0.00000230       0.00000174      -0.00000800       0.00000387      -0.00000403
H        1.40307530       4.05033597      16.81106552        0       1.00000000      -0.00000164       0.00000007      -0.00000227       0.00000425       0.00000921       0.00000036
H        2.80615257       1.62013576      16.81106716        0       1.00000000      -0.00000327      -0.00000121       0.00000704       0.00000531      -0.00001211      -0.00000490
H        5.60926174       4.86039474       7.77171622        0       1.00000000      -0.00000126      -0.00000407       0.00000614      -0.00001032      -0.00000232      -0.00000468
H        1.40307526       2.43019775       7.77172891        0       1.00000000      -0.00000228      -0.00000468      -0.00000048      -0.00000675       0.00000069       0.00000481
H       -0.00000317       1.62013771      16.81106476        0       1.00000000       0.00000408       0.00000046       0.00000292      -0.00000022       0.00000497      -0.00000004
19
Lattice="5.612310241546866 0.0 0.0 0.0 4.860403243099165 0.0 0.0 0.0 24.582432123328676" Properties=species:S:1:pos:R:3:tags:I:1:masses:R:1:momenta:R:3:forces:R:3 KEmax=24.559391461069055 iter=89358 volume=670.5618179858607 ns_energy=-12.522441159195065 last_walked_iter_clone=89206 energy=-12.522441159322579 stress="0.008830878568226895 -2.0860475647796027e-08 -2.7510979025416925e-08 -2.0860475647796027e-08 0.008877869417570882 -7.330165895780598e-09 -2.7510979025416925e-08 -7.330165895780598e-09 0.00471245529783917" pbc="T T T"
H        1.40307756       0.81006721      10.00000000        3       1.00000000       0.00000000       0.00000000       0.00000000       0.00000000       0.00000000       0.00000000
H        4.20923268       0.81006721      10.00000000        3       1.00000000       0.00000000       0.00000000       0.00000000       0.00000000       0.00000000       0.00000000
H        0.00000000       3.24026883      10.00000000        3       1.00000000       0.00000000       0.00000000       0.00000000       0.00000000       0.00000000       0.00000000
H        2.80615512       3.24026883      10.00000000        3       1.00000000       0.00000000       0.00000000       0.00000000       0.00000000       0.00000000       0.00000000
H        0.00000000       1.62013441      12.29121606        2       1.00000000       0.00000000       0.00000000       0.00000000       0.00000000       0.00000000       0.00000000
H        2.80615512       1.62013441      12.29121606        2       1.00000000       0.00000000       0.00000000       0.00000000       0.00000000       0.00000000       0.00000000
H        1.40307756       4.05033604      12.29121606        2       1.00000000       0.00000000       0.00000000       0.00000000       0.00000000       0.00000000       0.00000000
H        4.20923268       4.05033604      12.29121606        2       1.00000000       0.00000000       0.00000000       0.00000000       0.00000000       0.00000000       0.00000000
H        0.00000000       0.00000000      14.58243212        1       1.00000000       0.00000000       0.00000000       0.00000000       0.00000000       0.00000000       0.00000000
H        2.80615512       0.00000000      14.58243212        1       1.00000000       0.00000000       0.00000000       0.00000000       0.00000000       0.00000000       0.00000000
H        1.40307756       2.43020162      14.58243212        1       1.00000000       0.00000000       0.00000000       0.00000000       0.00000000       0.00000000       0.00000000
H        4.20923268       2.43020162      14.58243212        1       1.00000000       0.00000000       0.00000000       0.00000000       0.00000000       0.00000000       0.00000000
H        2.80919443       4.86040188       7.77172030        0       1.00000000      -0.00000118      -0.00000475       0.00000223       0.00001016       0.00000533       0.00000074
H        4.20923715       4.05033499      16.81106568        0       1.00000000      -0.00000018      -0.00000128      -0.00000160      -0.00000800       0.00000387      -0.00000403
H        1.40307895       4.05033905      16.81106713        0       1.00000000       0.00000107      -0.00000091      -0.00000101       0.00000425       0.00000921       0.00000036
H        2.80615592       1.62013788      16.81106641        0       1.00000000      -0.00000053       0.00000160       0.00000405       0.00000531      -0.00001211      -0.00000490
H        5.60926536       4.86039521       7.77172235        0       1.00000000      -0.00000565      -0.00000135       0.00000330      -0.00001032      -0.00000232      -0.00000468
H        1.40307990       2.43019644       7.77172858        0       1.00000000       0.00000255       0.00000585       0.00000243      -0.00000675       0.00000069       0.00000481
H       -0.00000135       1.62013636      16.81106210        0       1.00000000      -0.00000186      -0.00000607      -0.00000321      -0.00000022       0.00000497      -0.00000004
19
Lattice="5.612310241546866 0.0 0.0 0.0 4.860403243099165 0.0 0.0 0.0 24.582432123328676" Properties=species:S:1:pos:R:3:tags:I:1:masses:R:1:momenta:R:3:forces:R:3 KEmax=24.559391461069055 iter=89358 volume=670.5618179858607 ns_energy=-12.52244115920513 last_walked_iter_clone=89349 energy=-12.522441159322579 stress="0.008830878568226895 -2.0860475647796027e-08 -2.7510979025416925e-08 -2.0860475647796027e-08 0.008877869417570882 -7.330165895780598e-09 -2.7510979025416925e-08 -7.330165895780598e-09 0.00471245529783917" pbc="T T T"
H        1.40307756       0.81006721      10.00000000        3       1.00000000       0.00000000       0.00000000       0.00000000       0.00000000       0.00000000       0.00000000
H        4.20923268       0.81006721      10.00000000        3       1.00000000       0.00000000       0.00000000       0.00000000       0.00000000       0.00000000       0.00000000
H        0.00000000       3.24026883      10.00000000        3       1.00000000       0.00000000       0.00000000       0.00000000       0.00000000       0.00000000       0.00000000
H        2.80615512       3.24026883      10.00000000        3       1.00000000       0.00000000       0.00000000       0.00000000       0.00000000       0.00000000       0.00000000
H        0.00000000       1.62013441      12.29121606        2       1.00000000       0.00000000       0.00000000       0.00000000       0.00000000       0.00000000       0.00000000
H        2.80615512       1.62013441      12.29121606        2       1.00000000       0.00000000       0.00000000       0.00000000       0.00000000       0.00000000       0.00000000
H        1.40307756       4.05033604      12.29121606        2       1.00000000       0.00000000       0.00000000       0.00000000       0.00000000       0.00000000       0.00000000
H        4.20923268       4.05033604      12.29121606        2       1.00000000       0.00000000       0.00000000       0.00000000       0.00000000       0.00000000       0.00000000
H        0.00000000       0.00000000      14.58243212        1       1.00000000       0.00000000       0.00000000       0.00000000       0.00000000       0.00000000       0.00000000
H        2.80615512       0.00000000      14.58243212        1       1.00000000       0.00000000       0.00000000       0.00000000       0.00000000       0.00000000       0.00000000
H        1.40307756       2.43020162      14.58243212        1       1.00000000       0.00000000       0.00000000       0.00000000       0.00000000       0.00000000       0.00000000
H        4.20923268       2.43020162      14.58243212        1       1.00000000       0.00000000       0.00000000       0.00000000       0.00000000       0.00000000       0.00000000
H        2.80919892       4.86039034       7.77172048        0       1.00000000      -0.00000806       0.00000157      -0.00000678       0.00001016       0.00000533       0.00000074
H        4.20923018       4.05033499      16.81106439        0       1.00000000       0.00000370       0.00000687      -0.00000356      -0.00000800       0.00000387      -0.00000403
H        1.40307545       4.05033477      16.81106596        0       1.00000000       0.00000047       0.00000144       0.00000158       0.00000425       0.00000921       0.00000036
H        2.80615339       1.62013438      16.81106295        0       1.00000000      -0.00000098       0.00000266       0.00000485       0.00000531      -0.00001211      -0.00000490
H        5.60926561       4.86039087       7.77172233        0       1.00000000      -0.00000755       0.00000112       0.00000236      -0.00001032      -0.00000232      -0.00000468
H        1.40307984       2.43018942       7.77172578        0       1.00000000       0.00000682      -0.00000239      -0.00000417      -0.00000675       0.00000069       0.00000481
H        5.61230815       1.62013297      16.81106467        0       1.00000000      -0.00000004       0.00000233      -0.00000252      -0.00000022       0.00000497      -0.00000004
19
Lattice="5.612310241546866 0.0 0.0 0.0 4.860403243099165 0.0 0.0 0.0 24.582432123328676" Properties=species:S:1:pos:R:3:tags:I:1:masses:R:1:momenta:R:3:forces:R:3 KEmax=24.559391461069055 iter=89358 volume=670.5618179858607 ns_energy=-12.522441159198058 last_walked_iter_clone=89125 energy=-12.522441159322579 stress="0.008830878568226895 -2.0860475647796027e-08 -2.7510979025416925e-08 -2.0860475647796027e-08 0.008877869417570882 -7.330165895780598e-09 -2.7510979025416925e-08 -7.330165895780598e-09 0.00471245529783917" pbc="T T T"
H        1.40307756       0.81006721      10.00000000        3       1.00000000       0.00000000       0.00000000       0.00000000       0.00000000       0.00000000       0.00000000
H        4.20923268       0.81006721      10.00000000        3       1.00000000       0.00000000       0.00000000       0.00000000       0.00000000       0.00000000       0.00000000
H        0.00000000       3.24026883      10.00000000        3       1.00000000       0.00000000       0.00000000       0.00000000       0.00000000       0.00000000       0.00000000
H        2.80615512       3.24026883      10.00000000        3       1.00000000       0.00000000       0.00000000       0.00000000       0.00000000       0.00000000       0.00000000
H        0.00000000       1.62013441      12.29121606        2       1.00000000       0.00000000       0.00000000       0.00000000       0.00000000       0.00000000       0.00000000
H        2.80615512       1.62013441      12.29121606        2       1.00000000       0.00000000       0.00000000       0.00000000       0.00000000       0.00000000       0.00000000
H        1.40307756       4.05033604      12.29121606        2       1.00000000       0.00000000       0.00000000       0.00000000       0.00000000       0.00000000       0.00000000
H        4.20923268       4.05033604      12.29121606        2       1.00000000       0.00000000       0.00000000       0.00000000       0.00000000       0.00000000       0.00000000
H        0.00000000       0.00000000      14.58243212        1       1.00000000       0.00000000       0.00000000       0.00000000       0.00000000       0.00000000       0.00000000
H        2.80615512       0.00000000      14.58243212        1       1.00000000       0.00000000       0.00000000       0.00000000       0.00000000       0.00000000       0.00000000
H        1.40307756       2.43020162      14.58243212        1       1.00000000       0.00000000       0.00000000       0.00000000       0.00000000       0.00000000       0.00000000
H        4.20923268       2.43020162      14.58243212        1       1.00000000       0.00000000       0.00000000       0.00000000       0.00000000       0.00000000       0.00000000
H        2.80919609       4.86039445       7.77171823        0       1.00000000      -0.00000471       0.00000376      -0.00000175       0.00001016       0.00000533       0.00000074
H        4.20923585       4.05033546      16.81106595        0       1.00000000      -0.00000174       0.00000103      -0.00000596      -0.00000800       0.00000387      -0.00000403
H        1.40307940       4.05033271      16.81106389        0       1.00000000       0.00000114       0.00000046       0.00000365       0.00000425       0.00000921       0.00000036
H        2.80616096       1.62013039      16.81106686        0       1.00000000       0.00000434      -0.00000430       0.00000017       0.00000531      -0.00001211      -0.00000490
H        5.60926581       4.86039498       7.77172266        0       1.00000000       0.00000496      -0.00000056      -0.00000099      -0.00001032      -0.00000232      -0.00000468
H        1.40307686       2.43019470       7.77172879        0       1.00000000       0.00000686      -0.00001072      -0.00000187      -0.00000675       0.00000069       0.00000481
H        5.61231507       1.62013215      16.81106583        0       1.00000000       0.00000132      -0.00000186      -0.00000168      -0.00000022       0.00000497      -0.00000004
19
Lattice="5.612310241546866 0.0 0.0 0.0 4.860403243099165 0.0 0.0 0.0 24.582432123328676" Properties=species:S:1:pos:R:3:tags:I:1:masses:R:1:momenta:R:3:forces:R:3 KEmax=24.559391461069055 iter=89358 volume=670.5618179858607 ns_energy=-12.522441159203625 last_walked_iter_clone=89354 energy=-12.522441159322579 stress="0.008830878568226895 -2.0860475647796027e-08 -2.7510979025416925e-08 -2.0860475647796027e-08 0.008877869417570882 -7.330165895780598e-09 -2.7510979025416925e-08 -7.330165895780598e-09 0.00471245529783917" pbc="T T T"
H        1.40307756       0.81006721      10.00000000        3       1.00000000       0.00000000       0.00000000       0.00000000       0.00000000       0.00000000       0.00000000
H        4.20923268       0.81006721      10.00000000        3       1.00000000       0.00000000       0.00000000       0.00000000       0.00000000       0.00000000       0.00000000
H        0.00000000       3.24026883      10.00000000        3       1.00000000       0.00000000       0.00000000       0.00000000       0.00000000       0.00000000       0.00000000
H        2.80615512       3.24026883      10.00000000        3       1.00000000       0.00000000       0.00000000       0.00000000       0.00000000       0.00000000       0.00000000
H        0.00000000       1.62013441      12.29121606        2       1.00000000       0.00000000       0.00000000       0.00000000       0.00000000       0.00000000       0.00000000
H        2.80615512       1.62013441      12.29121606        2       1.00000000       0.00000000       0.00000000       0.00000000       0.00000000       0.00000000       0.00000000
H        1.40307756       4.05033604      12.29121606        2       1.00000000       0.00000000       0.00000000       0.00000000       0.00000000       0.00000000       0.00000000
H        4.20923268       4.05033604      12.29121606        2       1.00000000       0.00000000       0.00000000       0.00000000       0.00000000       0.00000000       0.00000000
H        0.00000000       0.00000000      14.58243212        1       1.00000000       0.00000000       0.00000000       0.00000000       0.00000000       0.00000000       0.00000000
H        2.80615512       0.00000000      14.58243212        1       1.00000000       0.00000000       0.00000000       0.00000000       0.00000000       0.00000000       0.00000000
H        1.40307756       2.43020162      14.58243212        1       1.00000000       0.00000000       0.00000000       0.00000000       0.00000000       0.00000000       0.00000000
H        4.20923268       2.43020162      14.58243212        1       1.00000000       0.00000000       0.00000000       0.00000000       0.00000000       0.00000000       0.00000000
H        2.80919538       4.86039642       7.77172381        0       1.00000000      -0.00000129       0.00000061      -0.00000001       0.00001016       0.00000533       0.00000074
H        4.20923350       4.05033221      16.81106436        0       1.00000000      -0.00000231      -0.00000558      -0.00000011      -0.00000800       0.00000387      -0.00000403
H        1.40307389       4.05033455      16.81106484        0       1.00000000      -0.00000405      -0.00000009      -0.00000507       0.00000425       0.00000921       0.00000036
H        2.80615465       1.62013036      16.81106346        0       1.00000000       0.00000307      -0.00000051      -0.00000197       0.00000531      -0.00001211      -0.00000490
H        5.60926703       4.86039411       7.77172318        0       1.00000000      -0.00000625       0.00000029      -0.00000240      -0.00001032      -0.00000232      -0.00000468
H        1.40307579       2.43019392       7.77173009        0       1.00000000       0.00000500      -0.00000424      -0.00000329      -0.00000675       0.00000069       0.00000481
H        5.61230975       1.62013308      16.81106201        0       1.00000000      -0.00000593      -0.00000690       0.00000191      -0.00000022       0.00000497      -0.00000004
19
Lattice="5.612310241546866 0.0 0.0 0.0 4.860403243099165 0.0 0.0 0.0 24.582432123328676" Properties=species:S:1:pos:R:3:tags:I:1:masses:R:1:momenta:R:3:forces:R:3 KEmax=24.559391461069055 iter=89358 volume=670.5618179858607 ns_energy=-12.522441159195582 last_walked_iter_clone=89245 energy=-12.522441159322579 stress="0.008830878568226895 -2.0860475647796027e-08 -2.7510979025416925e-08 -2.0860475647796027e-08 0.008877869417570882 -7.330165895780598e-09 -2.7510979025416925e-08 -7.330165895780598e-09 0.00471245529783917" pbc="T T T"
H        1.40307756       0.81006721      10.00000000        3       1.00000000       0.00000000       0.00000000       0.00000000       0.00000000       0.00000000       0.00000000
H        4.20923268       0.81006721      10.00000000        3       1.00000000       0.00000000       0.00000000       0.00000000       0.00000000       0.00000000       0.00000000
H        0.00000000       3.24026883      10.00000000        3       1.00000000       0.00000000       0.00000000       0.00000000       0.00000000       0.00000000       0.00000000
H        2.80615512       3.24026883      10.00000000        3       1.00000000       0.00000000       0.00000000       0.00000000       0.00000000       0.00000000       0.00000000
H        0.00000000       1.62013441      12.29121606        2       1.00000000       0.00000000       0.00000000       0.00000000       0.00000000       0.00000000       0.00000000
H        2.80615512       1.62013441      12.29121606        2       1.00000000       0.00000000       0.00000000       0.00000000       0.00000000       0.00000000       0.00000000
H        1.40307756       4.05033604      12.29121606        2       1.00000000       0.00000000       0.00000000       0.00000000       0.00000000       0.00000000       0.00000000
H        4.20923268       4.05033604      12.29121606        2       1.00000000       0.00000000       0.00000000       0.00000000       0.00000000       0.00000000       0.00000000
H        0.00000000       0.00000000      14.58243212        1       1.00000000       0.00000000       0.00000000       0.00000000       0.00000000       0.00000000       0.00000000
H        2.80615512       0.00000000      14.58243212        1       1.00000000       0.00000000       0.00000000       0.00000000       0.00000000       0.00000000       0.00000000
H        1.40307756       2.43020162      14.58243212        1       1.00000000       0.00000000       0.00000000       0.00000000       0.00000000       0.00000000       0.00000000
H        4.20923268       2.43020162      14.58243212        1       1.00000000       0.00000000       0.00000000       0.00000000       0.00000000       0.00000000       0.00000000
H        2.80919643       4.86039678       7.77171915        0       1.00000000       0.00000048      -0.00000109       0.00000277       0.00001016       0.00000533       0.00000074
H        4.20922861       4.05033598      16.81106576        0       1.00000000       0.00000389      -0.00000106       0.00000351      -0.00000800       0.00000387      -0.00000403
H        1.40307448       4.05033387      16.81107091        0       1.00000000      -0.00000203       0.00000075      -0.00000113       0.00000425       0.00000921       0.00000036
H        2.80615019       1.62013274      16.81106404        0       1.00000000      -0.00000307      -0.00000641       0.00000012       0.00000531      -0.00001211      -0.00000490
H        5.60926587       4.86039747       7.77171913        0       1.00000000      -0.00000212       0.00000242      -0.00001146      -0.00001032      -0.00000232      -0.00000468
H        1.40307798       2.43019655       7.77172512        0       1.00000000      -0.00000109       0.00000400      -0.00000062      -0.00000675       0.00000069       0.00000481
H       -0.00000424       1.62013325      16.81106422        0       1.00000000       0.00000057      -0.00000468      -0.00000308      -0.00000022       0.00000497      -0.00000004
19
Lattice="5.612310241546866 0.0 0.0 0.0 4.860403243099165 0.0 0.0 0.0 24.582432123328676" Properties=species:S:1:pos:R:3:tags:I:1:masses:R:1:momenta:R:3:forces:R:3 KEmax=24.559391461069055 iter=89358 volume=670.5618179858607 ns_energy=-12.522441159200424 last_walked_iter_clone=89214 energy=-12.522441159322579 stress="0.008830878568226895 -2.0860475647796027e-08 -2.7510979025416925e-08 -2.0860475647796027e-08 0.008877869417570882 -7.330165895780598e-09 -2.7510979025416925e-08 -7.330165895780598e-09 0.00471245529783917" pbc="T T T"
H        1.40307756       0.81006721      10.00000000        3       1.00000000       0.00000000       0.00000000       0.00000000       0.00000000       0.00000000       0.00000000
H        4.20923268       0.81006721      10.00000000        3       1.00000000       0.00000000       0.00000000       0.00000000       0.00000000       0.00000000       0.00000000
H        0.00000000       3.24026883      10.00000000        3       1.00000000       0.00000000       0.00000000       0.00000000       0.00000000       0.00000000       0.00000000
H        2.80615512       3.24026883      10.00000000        3       1.00000000       0.00000000       0.00000000       0.00000000       0.00000000       0.00000000       0.00000000
H        0.00000000       1.62013441      12.29121606        2       1.00000000       0.00000000       0.00000000       0.00000000       0.00000000       0.00000000       0.00000000
H        2.80615512       1.62013441      12.29121606        2       1.00000000       0.00000000       0.00000000       0.00000000       0.00000000       0.00000000       0.00000000
H        1.40307756       4.05033604      12.29121606        2       1.00000000       0.00000000       0.00000000       0.00000000       0.00000000       0.00000000       0.00000000
H        4.20923268       4.05033604      12.29121606        2       1.00000000       0.00000000       0.00000000       0.00000000       0.00000000       0.00000000       0.00000000
H        0.00000000       0.00000000      14.58243212        1       1.00000000       0.00000000       0.00000000       0.00000000       0.00000000       0.00000000       0.00000000
H        2.80615512       0.00000000      14.58243212        1       1.00000000       0.00000000       0.00000000       0.00000000       0.00000000       0.00000000       0.00000000
H        1.40307756       2.43020162      14.58243212        1       1.00000000       0.00000000       0.00000000       0.00000000       0.00000000       0.00000000       0.00000000
H        4.20923268       2.43020162      14.58243212        1       1.00000000       0.00000000       0.00000000       0.00000000       0.00000000       0.00000000       0.00000000
H        2.80919378       4.86039462       7.77171777        0       1.00000000       0.00000328       0.00000258       0.00000177       0.00001016       0.00000533       0.00000074
H        4.20923036       4.05033270      16.81106541        0       1.00000000       0.00000105      -0.00000648       0.00000104      -0.00000800       0.00000387      -0.00000403
H        1.40307455       4.05033359      16.81106540        0       1.00000000       0.00000525      -0.00000491      -0.00000156       0.00000425       0.00000921       0.00000036
H        2.80615385       1.62013307      16.81106450        0       1.00000000      -0.00000208      -0.00000195      -0.00000113       0.00000531      -0.00001211      -0.00000490
H        5.60926805       4.86039464       7.77172655        0       1.00000000      -0.00000272       0.00000427      -0.00000495      -0.00001032      -0.00000232      -0.00000468
H        1.40307609       2.43019557       7.77172626        0       1.00000000      -0.00000475      -0.00000315      -0.00000333      -0.00000675       0.00000069       0.00000481
H        5.61230923       1.62013308      16.81106742        0       1.00000000       0.00000156       0.00000454       0.00000667      -0.00000022       0.00000497      -0.00000004
19
Lattice="5.612310241546866 0.0 0.0 0.0 4.860403243099165 0.0 0.0 0.0 24.582432123328676" Properties=species:S:1:pos:R:3:tags:I:1:masses:R:1:momenta:R:3:forces:R:3 KEmax=24.559391461069055 iter=89358 volume=670.5618179858607 ns_energy=-12.522441159205329 last_walked_iter_clone=89342 energy=-12.522441159322579 stress="0.008830878568226895 -2.0860475647796027e-08 -2.7510979025416925e-08 -2.0860475647796027e-08 0.008877869417570882 -7.330165895780598e-09 -2.7510979025416925e-08 -7.330165895780598e-09 0.00471245529783917" pbc="T T T"
H        1.40307756       0.81006721      10.00000000        3       1.00000000       0.00000000       0.00000000       0.00000000       0.00000000       0.00000000       0.00000000
H        4.20923268       0.81006721      10.00000000        3       1.00000000       0.00000000       0.00000000       0.00000000       0.00000000       0.00000000       0.00000000
H        0.00000000       3.24026883      10.00000000        3       1.00000000       0.00000000       0.00000000       0.00000000       0.00000000       0.00000000       0.00000000
H        2.80615512       3.24026883      10.00000000        3       1.00000000       0.00000000       0.00000000       0.00000000       0.00000000       0.00000000       0.00000000
H        0.00000000       1.62013441      12.29121606        2       1.00000000       0.00000000       0.00000000       0.00000000       0.00000000       0.00000000       0.00000000
H        2.80615512       1.62013441      12.29121606        2       1.00000000       0.00000000       0.00000000       0.00000000       0.00000000       0.00000000       0.00000000
H        1.40307756       4.05033604      12.29121606        2       1.00000000       0.00000000       0.00000000       0.00000000       0.00000000       0.00000000       0.00000000
H        4.20923268       4.05033604      12.29121606        2       1.00000000       0.00000000       0.00000000       0.00000000       0.00000000       0.00000000       0.00000000