19
Lattice="5.612310241546866 0.0 0.0 0.0 4.860403243099165 0.0 0.0 0.0 24.582432123328676" Properties=species:S:1:pos:R:3:tags:I:1:masses:R:1:momenta:R:3:forces:R:3 KEmax=24.559391461069055 iter=119999 volume=670.5618179858607 ns_energy=-12.522441159440518 last_walked_iter_clone=118926 energy=-12.522441159444055 stress="0.008830862943278351 -1.1648154324121416e-09 4.369779287313647e-09 -1.1648154324121416e-09 0.008877892520274901 5.656315630088122e-09 4.369779287313647e-09 5.656315630088122e-09 0.004712438166516933" pbc="T T T"
H        1.40307756       0.81006721      10.00000000        3       1.00000000       0.00000000       0.00000000       0.00000000       0.00000000       0.00000000       0.00000000
H        4.20923268       0.81006721      10.00000000        3       1.00000000       0.00000000       0.00000000       0.00000000       0.00000000       0.00000000       0.00000000
H        0.00000000       3.24026883      10.00000000        3       1.00000000       0.00000000       0.00000000       0.00000000       0.00000000       0.00000000       0.00000000
H        2.80615512       3.24026883      10.00000000        3       1.00000000       0.00000000       0.00000000       0.00000000       0.00000000       0.00000000       0.00000000
H        0.00000000       1.62013441      12.29121606        2       1.00000000       0.00000000       0.00000000       0.00000000       0.00000000       0.00000000       0.00000000
H        2.80615512       1.62013441      12.29121606        2       1.00000000       0.00000000       0.00000000       0.00000000       0.00000000       0.00000000       0.00000000
H        1.40307756       4.05033604      12.29121606        2       1.00000000       0.00000000       0.00000000       0.00000000       0.00000000       0.00000000       0.00000000
H        4.20923268       4.05033604      12.29121606        2       1.00000000       0.00000000       0.00000000       0.00000000       0.00000000       0.00000000       0.00000000
H        0.00000000       0.00000000      14.58243212        1       1.00000000       0.00000000       0.00000000       0.00000000       0.00000000       0.00000000       0.00000000
H        2.80615512       0.00000000      14.58243212        1       1.00000000       0.00000000       0.00000000       0.00000000       0.00000000       0.00000000       0.00000000
H        1.40307756       2.43020162      14.58243212        1       1.00000000       0.00000000       0.00000000       0.00000000       0.00000000       0.00000000       0.00000000
H        4.20923268       2.43020162      14.58243212        1       1.00000000       0.00000000       0.00000000       0.00000000       0.00000000       0.00000000       0.00000000
H        2.80919765       4.86039356       7.77172100        0       1.00000000       0.00000125       0.00000072      -0.00000071       0.00000018       0.00000017       0.00000271
H        4.20923248       4.05033653      16.81106530        0       1.00000000       0.00000021       0.00000019       0.00000016      -0.00000013      -0.00000199       0.00000177
H        1.40307701       4.05033667      16.81106507        0       1.00000000      -0.00000099      -0.00000015      -0.00000111       0.00000090       0.00000118      -0.00000067
H        2.80615543       1.62013382      16.81106549        0       1.00000000       0.00000007       0.00000107       0.00000028      -0.00000022      -0.00000084       0.00000109
H        5.60926785       4.86039376       7.77172030        0       1.00000000      -0.00000015       0.00000082       0.00000002      -0.00000024       0.00000010       0.00000050
H        1.40307793       2.43019359       7.77172719        0       1.00000000      -0.00000023       0.00000039       0.00000047       0.00000040       0.00000093       0.00000187
H        5.61231048       1.62013509      16.81106484        0       1.00000000      -0.00000065       0.00000135      -0.00000038      -0.00000152       0.00000119      -0.00000132
19
Lattice="5.612310241546866 0.0 0.0 0.0 4.860403243099165 0.0 0.0 0.0 24.582432123328676" Properties=species:S:1:pos:R:3:tags:I:1:masses:R:1:momenta:R:3:forces:R:3 KEmax=24.559391461069055 iter=119999 volume=670.5618179858607 ns_energy=-12.52244115944048 last_walked_iter_clone=119830 energy=-12.522441159444055 stress="0.008830862943278351 -1.1648154324121416e-09 4.369779287313647e-09 -1.1648154324121416e-09 0.008877892520274901 5.656315630088122e-09 4.369779287313647e-09 5.656315630088122e-09 0.004712438166516933" pbc="T T T"
H        1.40307756       0.81006721      10.00000000        3       1.00000000       0.00000000       0.00000000       0.00000000       0.00000000       0.00000000       0.00000000
H        4.20923268       0.81006721      10.00000000        3       1.00000000       0.00000000       0.00000000       0.00000000       0.00000000       0.00000000       0.00000000
H        0.00000000       3.24026883      10.00000000        3       1.00000000       0.00000000       0.00000000       0.00000000       0.00000000       0.00000000       0.00000000
H        2.80615512       3.24026883      10.00000000        3       1.00000000       0.00000000       0.00000000       0.00000000       0.00000000       0.00000000       0.00000000
H        0.00000000       1.62013441      12.29121606        2       1.00000000       0.00000000       0.00000000       0.00000000       0.00000000       0.00000000       0.00000000
H        2.80615512       1.62013441      12.29121606        2       1.00000000       0.00000000       0.00000000       0.00000000       0.00000000       0.00000000       0.00000000
H        1.40307756       4.05033604      12.29121606        2       1.00000000       0.00000000       0.00000000       0.00000000       0.00000000       0.00000000       0.00000000
H        4.20923268       4.05033604      12.29121606        2       1.00000000       0.00000000       0.00000000       0.00000000       0.00000000       0.00000000       0.00000000
H        0.00000000       0.00000000      14.58243212        1       1.00000000       0.00000000       0.00000000       0.00000000       0.00000000       0.00000000       0.00000000
H        2.80615512       0.00000000      14.58243212        1       1.00000000       0.00000000       0.00000000       0.00000000       0.00000000       0.00000000       0.00000000
H        1.40307756       2.43020162      14.58243212        1       1.00000000       0.00000000       0.00000000       0.00000000       0.00000000       0.00000000       0.00000000
H        4.20923268       2.43020162      14.58243212        1       1.00000000       0.00000000       0.00000000       0.00000000       0.00000000       0.00000000       0.00000000
H        2.80919652       4.86039381       7.77172083        0       1.00000000       0.00000031       0.00000119       0.00000011       0.00000018       0.00000017       0.00000271
H        4.20923310       4.05033639      16.81106506        0       1.00000000       0.00000026       0.00000037       0.00000143      -0.00000013      -0.00000199       0.00000177
H        1.40307795       4.05033682      16.81106537        0       1.00000000       0.00000120      -0.00000076      -0.00000046       0.00000090       0.00000118      -0.00000067
H        2.80615532       1.62013452      16.81106557        0       1.00000000      -0.00000026       0.00000070       0.00000085      -0.00000022      -0.00000084       0.00000109
H        5.60926725       4.86039272       7.77172064        0       1.00000000      -0.00000051      -0.00000048       0.00000025      -0.00000024       0.00000010       0.00000050
H        1.40307719       2.43019277       7.77172729        0       1.00000000      -0.00000019      -0.00000053      -0.00000068       0.00000040       0.00000093       0.00000187
H        5.61231027       1.62013472      16.81106521        0       1.00000000      -0.00000098      -0.00000056       0.00000094      -0.00000152       0.00000119      -0.00000132
19
Lattice="5.612310241546866 0.0 0.0 0.0 4.860403243099165 0.0 0.0 0.0 24.582432123328676" Properties=species:S:1:pos:R:3:tags:I:1:masses:R:1:momenta:R:3:forces:R:3 KEmax=24.559391461069055 iter=119999 volume=670.5618179858607 ns_energy=-12.522441159440453 last_walked_iter_clone=118936 energy=-12.522441159444055 stress="0.008830862943278351 -1.1648154324121416e-09 4.369779287313647e-09 -1.1648154324121416e-09 0.008877892520274901 5.656315630088122e-09 4.369779287313647e-09 5.656315630088122e-09 0.004712438166516933" pbc="T T T"
H        1.40307756       0.81006721      10.00000000        3       1.00000000       0.00000000       0.00000000       0.00000000       0.00000000       0.00000000       0.00000000
H        4.20923268       0.81006721      10.00000000        3       1.00000000       0.00000000       0.00000000       0.00000000       0.00000000       0.00000000       0.00000000
H        0.00000000       3.24026883      10.00000000        3       1.00000000       0.00000000       0.00000000       0.00000000       0.00000000       0.00000000       0.00000000
H        2.80615512       3.24026883      10.00000000        3       1.00000000       0.00000000       0.00000000       0.00000000       0.00000000       0.00000000       0.00000000
H        0.00000000       1.62013441      12.29121606        2       1.00000000       0.00000000       0.00000000       0.00000000       0.00000000       0.00000000       0.00000000
H        2.80615512       1.62013441      12.29121606        2       1.00000000       0.00000000       0.00000000       0.00000000       0.00000000       0.00000000       0.00000000
H        1.40307756       4.05033604      12.29121606        2       1.00000000       0.00000000       0.00000000       0.00000000       0.00000000       0.00000000       0.00000000
H        4.20923268       4.05033604      12.29121606        2       1.00000000       0.00000000       0.00000000       0.00000000       0.00000000       0.00000000       0.00000000
H        0.00000000       0.00000000      14.58243212        1       1.00000000       0.00000000       0.00000000       0.00000000       0.00000000       0.00000000       0.00000000
H        2.80615512       0.00000000      14.58243212        1       1.00000000       0.00000000       0.00000000       0.00000000       0.00000000       0.00000000       0.00000000
H        1.40307756       2.43020162      14.58243212        1       1.00000000       0.00000000       0.00000000       0.00000000       0.00000000       0.00000000       0.00000000
H        4.20923268       2.43020162      14.58243212        1       1.00000000       0.00000000       0.00000000       0.00000000       0.00000000       0.00000000       0.00000000
H        2.80919773       4.86039242       7.77172117        0       1.00000000      -0.00000042       0.00000106      -0.00000116       0.00000018       0.00000017       0.00000271
H        4.20923260       4.05033623      16.81106521        0       1.00000000       0.00000006       0.00000032      -0.00000101      -0.00000013      -0.00000199       0.00000177
H        1.40307809       4.05033634      16.81106480        0       1.00000000       0.00000008       0.00000149       0.00000106       0.00000090       0.00000118      -0.00000067
H        2.80615506       1.62013477      16.81106453        0       1.00000000       0.00000155       0.00000062      -0.00000009      -0.00000022      -0.00000084       0.00000109
H        5.60926827       4.86039227       7.77172120        0       1.00000000      -0.00000051       0.00000051       0.00000047      -0.00000024       0.00000010       0.00000050
H        1.40307796       2.43019232       7.77172708        0       1.00000000      -0.00000058      -0.00000044       0.00000060       0.00000040       0.00000093       0.00000187
H       -0.00000022       1.62013439      16.81106495        0       1.00000000      -0.00000106       0.00000003       0.00000067      -0.00000152       0.00000119      -0.00000132
19
Lattice="5.612310241546866 0.0 0.0 0.0 4.860403243099165 0.0 0.0 0.0 24.582432123328676" Properties=species:S:1:pos:R:3:tags:I:1:masses:R:1:momenta:R:3:forces:R:3 KEmax=24.559391461069055 iter=119999 volume=670.5618179858607 ns_energy=-12.522441159440813 last_walked_iter_clone=119912 energy=-12.522441159444055 stress="0.008830862943278351 -1.1648154324121416e-09 4.369779287313647e-09 -1.1648154324121416e-09 0.008877892520274901 5.656315630088122e-09 4.369779287313647e-09 5.656315630088122e-09 0.004712438166516933" pbc="T T T"
H        1.40307756       0.81006721      10.00000000        3       1.00000000       0.00000000       0.00000000       0.00000000       0.00000000       0.00000000       0.00000000
H        4.20923268       0.81006721      10.00000000        3       1.00000000       0.00000000       0.00000000       0.00000000       0.00000000       0.00000000       0.00000000
H        0.00000000       3.24026883      10.00000000        3       1.00000000       0.00000000       0.00000000       0.00000000       0.00000000       0.00000000       0.00000000
H        2.80615512       3.24026883      10.00000000        3       1.00000000       0.00000000       0.00000000       0.00000000       0.00000000       0.00000000       0.00000000
H        0.00000000       1.62013441      12.29121606        2       1.00000000       0.00000000       0.00000000       0.00000000       0.00000000       0.00000000       0.00000000
H        2.80615512       1.62013441      12.29121606        2       1.00000000       0.00000000       0.00000000       0.00000000       0.00000000       0.00000000       0.00000000
H        1.40307756       4.05033604      12.29121606        2       1.00000000       0.00000000       0.00000000       0.00000000       0.00000000       0.00000000       0.00000000
H        4.20923268       4.05033604      12.29121606        2       1.00000000       0.00000000       0.00000000       0.00000000       0.00000000       0.00000000       0.00000000
H        0.00000000       0.00000000      14.58243212        1       1.00000000       0.00000000       0.00000000       0.00000000       0.00000000       0.00000000       0.00000000
H        2.80615512       0.00000000      14.58243212        1       1.00000000       0.00000000       0.00000000       0.00000000       0.00000000       0.00000000       0.00000000
H        1.40307756       2.43020162      14.58243212        1       1.00000000       0.00000000       0.00000000       0.00000000       0.00000000       0.00000000       0.00000000
H        4.20923268       2.43020162      14.58243212        1       1.00000000       0.00000000       0.00000000       0.00000000       0.00000000       0.00000000       0.00000000
H        2.80919747       4.86039357       7.77172042        0       1.00000000       0.00000041      -0.00000014      -0.00000082       0.00000018       0.00000017       0.00000271
H        4.20923270       4.05033626      16.81106519        0       1.00000000       0.00000082      -0.00000057      -0.00000173      -0.00000013      -0.00000199       0.00000177
H        1.40307762       4.05033554      16.81106522        0       1.00000000      -0.00000004       0.00000042       0.00000044       0.00000090       0.00000118      -0.00000067
H        2.80615511       1.62013392      16.81106498        0       1.00000000      -0.00000023       0.00000001       0.00000060      -0.00000022      -0.00000084       0.00000109
H        5.60926807       4.86039409       7.77172151        0       1.00000000      -0.00000001      -0.00000093      -0.00000104      -0.00000024       0.00000010       0.00000050
H        1.40307672       2.43019415       7.77172783        0       1.00000000       0.00000016       0.00000038      -0.00000062       0.00000040       0.00000093       0.00000187
H        5.61230992       1.62013356      16.81106462        0       1.00000000      -0.00000047       0.00000048       0.00000047      -0.00000152       0.00000119      -0.00000132
19
Lattice="5.612310241546866 0.0 0.0 0.0 4.860403243099165 0.0 0.0 0.0 24.582432123328676" Properties=species:S:1:pos:R:3:tags:I:1:masses:R:1:momenta:R:3:forces:R:3 KEmax=24.559391461069055 iter=119999 volume=670.5618179858607 ns_energy=-12.522441159440591 last_walked_iter_clone=118946 energy=-12.522441159444055 stress="0.008830862943278351 -1.1648154324121416e-09 4.369779287313647e-09 -1.1648154324121416e-09 0.008877892520274901 5.656315630088122e-09 4.369779287313647e-09 5.656315630088122e-09 0.004712438166516933" pbc="T T T"
H        1.40307756       0.81006721      10.00000000        3       1.00000000       0.00000000       0.00000000       0.00000000       0.00000000       0.00000000       0.00000000
H        4.20923268       0.81006721      10.00000000        3       1.00000000       0.00000000       0.00000000       0.00000000       0.00000000       0.00000000       0.00000000
H        0.00000000       3.24026883      10.00000000        3       1.00000000       0.00000000       0.00000000       0.00000000       0.00000000       0.00000000       0.00000000
H        2.80615512       3.24026883      10.00000000        3       1.00000000       0.00000000       0.00000000       0.00000000       0.00000000       0.00000000       0.00000000
H        0.00000000       1.62013441      12.29121606        2       1.00000000       0.00000000       0.00000000       0.00000000       0.00000000       0.00000000       0.00000000
H        2.80615512       1.62013441      12.29121606        2       1.00000000       0.00000000       0.00000000       0.00000000       0.00000000       0.00000000       0.00000000
H        1.40307756       4.05033604      12.29121606        2       1.00000000       0.00000000       0.00000000       0.00000000       0.00000000       0.00000000       0.00000000
H        4.20923268       4.05033604      12.29121606        2       1.00000000       0.00000000       0.00000000       0.00000000       0.00000000       0.00000000       0.00000000
H        0.00000000       0.00000000      14.58243212        1       1.00000000       0.00000000       0.00000000       0.00000000       0.00000000       0.00000000       0.00000000
H        2.80615512       0.00000000      14.58243212        1       1.00000000       0.00000000       0.00000000       0.00000000       0.00000000       0.00000000       0.00000000
H        1.40307756       2.43020162      14.58243212        1       1.00000000       0.00000000       0.00000000       0.00000000       0.00000000       0.00000000       0.00000000
H        4.20923268       2.43020162      14.58243212        1       1.00000000       0.00000000       0.00000000       0.00000000       0.00000000       0.00000000       0.00000000
H        2.80919651       4.86039265       7.77172054        0       1.00000000       0.00000089       0.00000058       0.00000101       0.00000018       0.00000017       0.00000271
H        4.20923312       4.05033485      16.81106497        0       1.00000000       0.00000084      -0.00000035      -0.00000002      -0.00000013      -0.00000199       0.00000177
H        1.40307832       4.05033537      16.81106478        0       1.00000000       0.00000017      -0.00000088       0.00000078       0.00000090       0.00000118      -0.00000067
H        2.80615538       1.62013337      16.81106500        0       1.00000000       0.00000053       0.00000025      -0.00000029      -0.00000022      -0.00000084       0.00000109
H        5.60926731       4.86039389       7.77172115        0       1.00000000       0.00000111       0.00000036       0.00000032      -0.00000024       0.00000010       0.00000050
H        1.40307676       2.43019291       7.77172741        0       1.00000000       0.00000055      -0.00000090       0.00000086       0.00000040       0.00000093       0.00000187
H        5.61231063       1.62013403      16.81106559        0       1.00000000      -0.00000093       0.00000001       0.00000069      -0.00000152       0.00000119      -0.00000132
19
Lattice="5.612310241546866 0.0 0.0 0.0 4.860403243099165 0.0 0.0 0.0 24.582432123328676" Properties=species:S:1:pos:R:3:tags:I:1:masses:R:1:momenta:R:3:forces:R:3 KEmax=24.559391461069055 iter=119999 volume=670.5618179858607 ns_energy=-12.522441159440444 last_walked_iter_clone=118816 energy=-12.522441159444055 stress="0.008830862943278351 -1.1648154324121416e-09 4.369779287313647e-09 -1.1648154324121416e-09 0.008877892520274901 5.656315630088122e-09 4.369779287313647e-09 5.656315630088122e-09 0.004712438166516933" pbc="T T T"
H        1.40307756       0.81006721      10.00000000        3       1.00000000       0.00000000       0.00000000       0.00000000       0.00000000       0.00000000       0.00000000
H        4.20923268       0.81006721      10.00000000        3       1.00000000       0.00000000       0.00000000       0.00000000       0.00000000       0.00000000       0.00000000
H        0.00000000       3.24026883      10.00000000        3       1.00000000       0.00000000       0.00000000       0.00000000       0.00000000       0.00000000       0.00000000
H        2.80615512       3.24026883      10.00000000        3       1.00000000       0.00000000       0.00000000       0.00000000       0.00000000       0.00000000       0.00000000
H        0.00000000       1.62013441      12.29121606        2       1.00000000       0.00000000       0.00000000       0.00000000       0.00000000       0.00000000       0.00000000
H        2.80615512       1.62013441      12.29121606        2       1.00000000       0.00000000       0.00000000       0.00000000       0.00000000       0.00000000       0.00000000
H        1.40307756       4.05033604      12.29121606        2       1.00000000       0.00000000       0.00000000       0.00000000       0.00000000       0.00000000       0.00000000
H        4.20923268       4.05033604      12.29121606        2       1.00000000       0.00000000       0.00000000       0.00000000       0.00000000       0.00000000       0.00000000
H        0.00000000       0.00000000      14.58243212        1       1.00000000       0.00000000       0.00000000       0.00000000       0.00000000       0.00000000       0.00000000
H        2.80615512       0.00000000      14.58243212        1       1.00000000       0.00000000       0.00000000       0.00000000       0.00000000       0.00000000       0.00000000
H        1.40307756       2.43020162      14.58243212        1       1.00000000       0.00000000       0.00000000       0.00000000       0.00000000       0.00000000       0.00000000
H        4.20923268       2.43020162      14.58243212        1       1.00000000       0.00000000       0.00000000       0.00000000       0.00000000       0.00000000       0.00000000
H        2.80919685       4.86039325       7.77172101        0       1.00000000      -0.00000002       0.00000030      -0.00000112       0.00000018       0.00000017       0.00000271
H        4.20923318       4.05033595      16.81106556        0       1.00000000       0.00000089       0.00000050      -0.00000034      -0.00000013      -0.00000199       0.00000177
H        1.40307777       4.05033545      16.81106512        0       1.00000000       0.00000066       0.00000159       0.00000059       0.00000090       0.00000118      -0.00000067
H        2.80615621       1.62013422      16.81106590        0       1.00000000       0.00000088      -0.00000079      -0.00000040      -0.00000022      -0.00000084       0.00000109
H        5.60926838       4.86039263       7.77172116        0       1.00000000      -0.00000069      -0.00000017       0.00000012      -0.00000024       0.00000010       0.00000050
H        1.40307802       2.43019332       7.77172722        0       1.00000000       0.00000002       0.00000008      -0.00000023       0.00000040       0.00000093       0.00000187
H        0.00000101       1.62013433      16.81106545        0       1.00000000       0.00000053      -0.00000072       0.00000062      -0.00000152       0.00000119      -0.00000132
19
Lattice="5.612310241546866 0.0 0.0 0.0 4.860403243099165 0.0 0.0 0.0 24.582432123328676" Properties=species:S:1:pos:R:3:tags:I:1:masses:R:1:momenta:R:3:forces:R:3 KEmax=24.559391461069055 iter=119999 volume=670.5618179858607 ns_energy=-12.522441159440517 last_walked_iter_clone=119909 energy=-12.522441159444055 stress="0.008830862943278351 -1.1648154324121416e-09 4.369779287313647e-09 -1.1648154324121416e-09 0.008877892520274901 5.656315630088122e-09 4.369779287313647e-09 5.656315630088122e-09 0.004712438166516933" pbc="T T T"
H        1.40307756       0.81006721      10.00000000        3       1.00000000       0.00000000       0.00000000       0.00000000       0.00000000       0.00000000       0.00000000
H        4.20923268       0.81006721      10.00000000        3       1.00000000       0.00000000       0.00000000       0.00000000       0.00000000       0.00000000       0.00000000
H        0.00000000       3.24026883      10.00000000        3       1.00000000       0.00000000       0.00000000       0.00000000       0.00000000       0.00000000       0.00000000
H        2.80615512       3.24026883      10.00000000        3       1.00000000       0.00000000       0.00000000       0.00000000       0.00000000       0.00000000       0.00000000
H        0.00000000       1.62013441      12.29121606        2       1.00000000       0.00000000       0.00000000       0.00000000       0.00000000       0.00000000       0.00000000
H        2.80615512       1.62013441      12.29121606        2       1.00000000       0.00000000       0.00000000       0.00000000       0.00000000       0.00000000       0.00000000
H        1.40307756       4.05033604      12.29121606        2       1.00000000       0.00000000       0.00000000       0.00000000       0.00000000       0.00000000       0.00000000
H        4.20923268       4.05033604      12.29121606        2       1.00000000       0.00000000       0.00000000       0.00000000       0.00000000       0.00000000       0.00000000
H        0.00000000       0.00000000      14.58243212        1       1.00000000       0.00000000       0.00000000       0.00000000       0.00000000       0.00000000       0.00000000
H        2.80615512       0.00000000      14.58243212        1       1.00000000       0.00000000       0.00000000       0.00000000       0.00000000       0.00000000       0.00000000
H        1.40307756       2.43020162      14.58243212        1       1.00000000       0.00000000       0.00000000       0.00000000       0.00000000       0.00000000       0.00000000
H        4.20923268       2.43020162      14.58243212        1       1.00000000       0.00000000       0.00000000       0.00000000       0.00000000       0.00000000       0.00000000
H        2.80919780       4.86039240       7.77172031        0       1.00000000      -0.00000029       0.00000011      -0.00000015       0.00000018       0.00000017       0.00000271
H        4.20923246       4.05033643      16.81106438        0       1.00000000      -0.00000024      -0.00000041       0.00000073      -0.00000013      -0.00000199       0.00000177
H        1.40307745       4.05033581      16.81106510        0       1.00000000      -0.00000139       0.00000074      -0.00000189       0.00000090       0.00000118      -0.00000067
H        2.80615491       1.62013462      16.81106548        0       1.00000000       0.00000017      -0.00000041      -0.00000099      -0.00000022      -0.00000084       0.00000109
H        5.60926861       4.86039301       7.77172073        0       1.00000000       0.00000043       0.00000120      -0.00000116      -0.00000024       0.00000010       0.00000050
H        1.40307770       2.43019290       7.77172684        0       1.00000000      -0.00000054      -0.00000072      -0.00000068       0.00000040       0.00000093       0.00000187
H       -0.00000029       1.62013436      16.81106476        0       1.00000000      -0.00000023      -0.00000070      -0.00000068      -0.00000152       0.00000119      -0.00000132
19
Lattice="5.612310241546866 0.0 0.0 0.0 4.860403243099165 0.0 0.0 0.0 24.582432123328676" Properties=species:S:1:pos:R:3:tags:I:1:masses:R:1:momenta:R:3:forces:R:3 KEmax=24.559391461069055 iter=119999 volume=670.5618179858607 ns_energy=-12.522441159440486 last_walked_iter_clone=118347 energy=-12.522441159444055 stress="0.008830862943278351 -1.1648154324121416e-09 4.369779287313647e-09 -1.1648154324121416e-09 0.008877892520274901 5.656315630088122e-09 4.369779287313647e-09 5.656315630088122e-09 0.004712438166516933" pbc="T T T"
H        1.40307756       0.81006721      10.00000000        3       1.00000000       0.00000000       0.00000000       0.00000000       0.00000000       0.00000000       0.00000000
H        4.20923268       0.81006721      10.00000000        3       1.00000000       0.00000000       0.00000000       0.00000000       0.00000000       0.00000000       0.00000000
H        0.00000000       3.24026883      10.00000000        3       1.00000000       0.00000000       0.00000000       0.00000000       0.00000000       0.00000000       0.00000000
H        2.80615512       3.24026883      10.00000000        3       1.00000000       0.00000000       0.00000000       0.00000000       0.00000000       0.00000000       0.00000000
H        0.00000000       1.62013441      12.29121606        2       1.00000000       0.00000000       0.00000000       0.00000000       0.00000000       0.00000000       0.00000000
H        2.80615512       1.62013441      12.29121606        2       1.00000000       0.00000000       0.00000000       0.00000000       0.00000000       0.00000000       0.00000000
H        1.40307756       4.05033604      12.29121606        2       1.00000000       0.00000000       0.00000000       0.00000000       0.00000000       0.00000000       0.00000000
H        4.20923268       4.05033604      12.29121606        2       1.00000000       0.00000000       0.00000000       0.00000000       0.00000000       0.00000000       0.00000000