19
Lattice="5.612310241546866 0.0 0.0 0.0 4.860403243099165 0.0 0.0 0.0 24.582432123328676" Properties=species:S:1:pos:R:3:tags:I:1:masses:R:1:momenta:R:3 KEmax=24.559391461069055 iter=99 volume=670.5618179858607 ns_energy=147.06788188975548 last_walked_iter_clone=3 ns_P=0.0 config_n_global=99 ns_KE=21.81768289708247 pbc="T T T"
H        1.40307756       0.81006721      10.00000000        3       1.00000000       0.00000000       0.00000000       0.00000000
H        4.20923268       0.81006721      10.00000000        3       1.00000000       0.00000000       0.00000000       0.00000000
H        0.00000000       3.24026883      10.00000000        3       1.00000000       0.00000000       0.00000000       0.00000000
H        2.80615512       3.24026883      10.00000000        3       1.00000000       0.00000000       0.00000000       0.00000000
H        0.00000000       1.62013441      12.29121606        2       1.00000000       0.00000000       0.00000000       0.00000000
H        2.80615512       1.62013441      12.29121606        2       1.00000000       0.00000000       0.00000000       0.00000000
H        1.40307756       4.05033604      12.29121606        2       1.00000000       0.00000000       0.00000000       0.00000000
H        4.20923268       4.05033604      12.29121606        2       1.00000000       0.00000000       0.00000000       0.00000000
H        0.00000000       0.00000000      14.58243212        1       1.00000000       0.00000000       0.00000000       0.00000000
H        2.80615512       0.00000000      14.58243212        1       1.00000000       0.00000000       0.00000000       0.00000000
H        1.40307756       2.43020162      14.58243212        1       1.00000000       0.00000000       0.00000000       0.00000000
H        4.20923268       2.43020162      14.58243212        1       1.00000000       0.00000000       0.00000000       0.00000000
H        3.47805463       0.19808879      20.35519915        0       1.00000000      -0.99855007      -1.38527427       1.97663158
H        0.14306414       3.60692904       4.34993222        0       1.00000000      -0.10953901      -1.89659798      -0.48925624
H        3.58705865       1.97690897      18.24538907        0       1.00000000      -0.42564367       0.26412865       0.88483219
H        0.78922864       0.84656594       7.75054791        0       1.00000000       3.09344458      -1.38024626       0.26422825
H        5.04826167       0.09549592       4.53120927        0       1.00000000       0.64400691       0.13777801       1.03955959
H        0.31095040       1.88865706      22.71767225        0       1.00000000      -0.41377487       0.77644596      -0.15253888
H        5.14748299       3.69085378      18.48651818        0       1.00000000      -1.14019687      -2.96319745      -2.82723291
19
Lattice="5.612310241546866 0.0 0.0 0.0 4.860403243099165 0.0 0.0 0.0 24.582432123328676" Properties=species:S:1:pos:R:3:tags:I:1:masses:R:1:momenta:R:3 KEmax=24.559391461069055 iter=199 volume=670.5618179858607 ns_energy=16.665287435988148 last_walked_iter_clone=177 ns_P=0.0 config_n_global=199 ns_KE=23.018508376745032 pbc="T T T"
H        1.40307756       0.81006721      10.00000000        3       1.00000000       0.00000000       0.00000000       0.00000000
H        4.20923268       0.81006721      10.00000000        3       1.00000000       0.00000000       0.00000000       0.00000000
H        0.00000000       3.24026883      10.00000000        3       1.00000000       0.00000000       0.00000000       0.00000000
H        2.80615512       3.24026883      10.00000000        3       1.00000000       0.00000000       0.00000000       0.00000000
H        0.00000000       1.62013441      12.29121606        2       1.00000000       0.00000000       0.00000000       0.00000000
H        2.80615512       1.62013441      12.29121606        2       1.00000000       0.00000000       0.00000000       0.00000000
H        1.40307756       4.05033604      12.29121606        2       1.00000000       0.00000000       0.00000000       0.00000000
H        4.20923268       4.05033604      12.29121606        2       1.00000000       0.00000000       0.00000000       0.00000000
H        0.00000000       0.00000000      14.58243212        1       1.00000000       0.00000000       0.00000000       0.00000000
H        2.80615512       0.00000000      14.58243212        1       1.00000000       0.00000000       0.00000000       0.00000000
H        1.40307756       2.43020162      14.58243212        1       1.00000000       0.00000000       0.00000000       0.00000000
H        4.20923268       2.43020162      14.58243212        1       1.00000000       0.00000000       0.00000000       0.00000000
H        4.68634131       1.90757470      16.69194165        0       1.00000000      -1.40152975       1.56983619      -1.66989107
H        2.49087381       0.70486962      20.17631452        0       1.00000000      -2.86815738      -1.46284451      -1.32705524
H        2.31242728       2.42447290       7.27522007        0       1.00000000       0.31907031      -0.21670379      -0.94885118
H        2.11894312       3.30900879       1.19086377        0       1.00000000       0.38201555      -0.83914983       1.31616327
H        3.20286081       0.48164650       7.85130886        0       1.00000000      -0.48667956       1.08396853       1.57425152
H        3.12992796       1.80898602       5.30021262        0       1.00000000      -1.39430989      -1.01742998       2.62942006
H        0.89960095       1.21806086       2.81564719        0       1.00000000      -2.47488438      -1.76913352      -0.15133220
19
Lattice="5.612310241546866 0.0 0.0 0.0 4.860403243099165 0.0 0.0 0.0 24.582432123328676" Properties=species:S:1:pos:R:3:tags:I:1:masses:R:1:momenta:R:3 KEmax=24.559391461069055 iter=299 volume=670.5618179858607 ns_energy=14.257269926750125 last_walked_iter_clone=227 ns_P=0.0 config_n_global=299 ns_KE=22.65399673218085 pbc="T T T"
H        1.40307756       0.81006721      10.00000000        3       1.00000000       0.00000000       0.00000000       0.00000000
H        4.20923268       0.81006721      10.00000000        3       1.00000000       0.00000000       0.00000000       0.00000000
H        0.00000000       3.24026883      10.00000000        3       1.00000000       0.00000000       0.00000000       0.00000000
H        2.80615512       3.24026883      10.00000000        3       1.00000000       0.00000000       0.00000000       0.00000000
H        0.00000000       1.62013441      12.29121606        2       1.00000000       0.00000000       0.00000000       0.00000000
H        2.80615512       1.62013441      12.29121606        2       1.00000000       0.00000000       0.00000000       0.00000000
H        1.40307756       4.05033604      12.29121606        2       1.00000000       0.00000000       0.00000000       0.00000000
H        4.20923268       4.05033604      12.29121606        2       1.00000000       0.00000000       0.00000000       0.00000000
H        0.00000000       0.00000000      14.58243212        1       1.00000000       0.00000000       0.00000000       0.00000000
H        2.80615512       0.00000000      14.58243212        1       1.00000000       0.00000000       0.00000000       0.00000000
H        1.40307756       2.43020162      14.58243212        1       1.00000000       0.00000000       0.00000000       0.00000000
H        4.20923268       2.43020162      14.58243212        1       1.00000000       0.00000000       0.00000000       0.00000000
H        2.40573674       2.78955367      19.66544784        0       1.00000000       0.36013419       0.92032917      -0.51783610
H        4.79938182       2.88336083      17.56564685        0       1.00000000      -3.40947109       0.16423750       0.14958595
H        4.36376516       3.56608947      21.14717453        0       1.00000000       0.70269629       0.07913135       0.73460470
H        2.82231649       1.94921766      22.04955410        0       1.00000000      -0.52829382      -2.36053508       0.90830291
H        1.26553809       3.95315784       3.75997106        0       1.00000000      -2.28112802      -0.42191359      -2.47761832
H        2.72326612       1.45267839       2.79778940        0       1.00000000      -0.76665614      -0.64066031       0.38960685
H        4.90399325       0.20211861       1.90733066        0       1.00000000       1.96341998      -0.53767912       2.80340957
19
Lattice="5.612310241546866 0.0 0.0 0.0 4.860403243099165 0.0 0.0 0.0 24.582432123328676" Properties=species:S:1:pos:R:3:tags:I:1:masses:R:1:momenta:R:3 KEmax=24.559391461069055 iter=399 volume=670.5618179858607 ns_energy=12.675151608024121 last_walked_iter_clone=326 ns_P=0.0 config_n_global=399 ns_KE=18.935943373957222 pbc="T T T"
H        1.40307756       0.81006721      10.00000000        3       1.00000000       0.00000000       0.00000000       0.00000000
H        4.20923268       0.81006721      10.00000000        3       1.00000000       0.00000000       0.00000000       0.00000000
H        0.00000000       3.24026883      10.00000000        3       1.00000000       0.00000000       0.00000000       0.00000000
H        2.80615512       3.24026883      10.00000000        3       1.00000000       0.00000000       0.00000000       0.00000000
H        0.00000000       1.62013441      12.29121606        2       1.00000000       0.00000000       0.00000000       0.00000000
H        2.80615512       1.62013441      12.29121606        2       1.00000000       0.00000000       0.00000000       0.00000000
H        1.40307756       4.05033604      12.29121606        2       1.00000000       0.00000000       0.00000000       0.00000000
H        4.20923268       4.05033604      12.29121606        2       1.00000000       0.00000000       0.00000000       0.00000000
H        0.00000000       0.00000000      14.58243212        1       1.00000000       0.00000000       0.00000000       0.00000000
H        2.80615512       0.00000000      14.58243212        1       1.00000000       0.00000000       0.00000000       0.00000000
H        1.40307756       2.43020162      14.58243212        1       1.00000000       0.00000000       0.00000000       0.00000000
H        4.20923268       2.43020162      14.58243212        1       1.00000000       0.00000000       0.00000000       0.00000000
H        1.05441695       0.51731829      16.35599994        0       1.00000000       0.20641719      -1.15294602       1.14741959
H        4.71259378       1.38312295      21.84663857        0       1.00000000       0.58543353      -0.35570084       0.68840445
H        4.97258331       4.26999826       6.71377189        0       1.00000000      -1.93830484       1.31022068      -1.01429480
H        0.15401553       3.17941062       2.65031542        0       1.00000000      -0.26722695      -0.40853665      -3.17792508
H        5.28841506       3.22086222      16.57218283        0       1.00000000      -1.34639292       0.06238820      -0.32618964
H        4.51272945       2.69873011      19.45738960        0       1.00000000      -2.40683840       1.19207378       1.54169705
H        1.69652093       4.14073325      18.04907870        0       1.00000000      -1.18102342       0.38973201       2.08320287
19
Lattice="5.612310241546866 0.0 0.0 0.0 4.860403243099165 0.0 0.0 0.0 24.582432123328676" Properties=species:S:1:pos:R:3:tags:I:1:masses:R:1:momenta:R:3 KEmax=24.559391461069055 iter=499 volume=670.5618179858607 ns_energy=11.218644910888345 last_walked_iter_clone=276 ns_P=0.0 config_n_global=499 ns_KE=18.650471918792068 pbc="T T T"
H        1.40307756       0.81006721      10.00000000        3       1.00000000       0.00000000       0.00000000       0.00000000
H        4.20923268       0.81006721      10.00000000        3       1.00000000       0.00000000       0.00000000       0.00000000
H        0.00000000       3.24026883      10.00000000        3       1.00000000       0.00000000       0.00000000       0.00000000
H        2.80615512       3.24026883      10.00000000        3       1.00000000       0.00000000       0.00000000       0.00000000
H        0.00000000       1.62013441      12.29121606        2       1.00000000       0.00000000       0.00000000       0.00000000
H        2.80615512       1.62013441      12.29121606        2       1.00000000       0.00000000       0.00000000       0.00000000
H        1.40307756       4.05033604      12.29121606        2       1.00000000       0.00000000       0.00000000       0.00000000
H        4.20923268       4.05033604      12.29121606        2       1.00000000       0.00000000       0.00000000       0.00000000
H        0.00000000       0.00000000      14.58243212        1       1.00000000       0.00000000       0.00000000       0.00000000
H        2.80615512       0.00000000      14.58243212        1       1.00000000       0.00000000       0.00000000       0.00000000
H        1.40307756       2.43020162      14.58243212        1       1.00000000       0.00000000       0.00000000       0.00000000
H        4.20923268       2.43020162      14.58243212        1       1.00000000       0.00000000       0.00000000       0.00000000
H        5.47659656       4.55934577       7.76589966        0       1.00000000       0.04818391       1.26476102       1.46022236
H        1.03972812       4.17947209      24.32056710        0       1.00000000       1.07042944      -2.36101597       1.33811503
H        2.17658931       4.35598531       1.84871827        0       1.00000000      -0.48504211       0.31701621      -1.38112882
H        1.41601340       2.03938933      20.51287611        0       1.00000000      -1.44166313       0.52587835       0.07503739
H        1.35968157       2.00960604      18.02142931        0       1.00000000       0.89828657      -0.72116342      -0.14044987
H        3.11620428       3.11605805      17.32697380        0       1.00000000       0.36875449       3.97954431      -0.11430841
H        3.40500919       4.47514356       5.83376696        0       1.00000000       0.57531018      -0.80175716       1.46485309
19
Lattice="5.612310241546866 0.0 0.0 0.0 4.860403243099165 0.0 0.0 0.0 24.582432123328676" Properties=species:S:1:pos:R:3:tags:I:1:masses:R:1:momenta:R:3 KEmax=24.559391461069055 iter=599 volume=670.5618179858607 ns_energy=9.86818326512878 last_walked_iter_clone=520 ns_P=0.0 config_n_global=599 ns_KE=17.77018664983945 pbc="T T T"
H        1.40307756       0.81006721      10.00000000        3       1.00000000       0.00000000       0.00000000       0.00000000
H        4.20923268       0.81006721      10.00000000        3       1.00000000       0.00000000       0.00000000       0.00000000
H        0.00000000       3.24026883      10.00000000        3       1.00000000       0.00000000       0.00000000       0.00000000
H        2.80615512       3.24026883      10.00000000        3       1.00000000       0.00000000       0.00000000       0.00000000
H        0.00000000       1.62013441      12.29121606        2       1.00000000       0.00000000       0.00000000       0.00000000
H        2.80615512       1.62013441      12.29121606        2       1.00000000       0.00000000       0.00000000       0.00000000
H        1.40307756       4.05033604      12.29121606        2       1.00000000       0.00000000       0.00000000       0.00000000
H        4.20923268       4.05033604      12.29121606        2       1.00000000       0.00000000       0.00000000       0.00000000
H        0.00000000       0.00000000      14.58243212        1       1.00000000       0.00000000       0.00000000       0.00000000
H        2.80615512       0.00000000      14.58243212        1       1.00000000       0.00000000       0.00000000       0.00000000
H        1.40307756       2.43020162      14.58243212        1       1.00000000       0.00000000       0.00000000       0.00000000
H        4.20923268       2.43020162      14.58243212        1       1.00000000       0.00000000       0.00000000       0.00000000
H        1.00715245       2.61039116      19.70168352        0       1.00000000      -1.22575219      -1.53734287      -1.56352373
H        5.23242477       0.86715899      22.35212623        0       1.00000000       0.95107506       0.66670054       1.80087677
H        2.70542949       4.51819054       8.11832153        0       1.00000000      -1.10331381       1.28775439      -0.78636711
H        1.26517656       2.54432020       5.17196848        0       1.00000000       0.09967305      -1.92992100       0.08594587
H        3.66808863       3.17291567       1.46182976        0       1.00000000       0.97513727       0.30332741      -1.53922425
H        1.10255708       0.24472592      19.29281619        0       1.00000000       0.01571108      -0.72979296      -2.70782504
H        5.09998020       0.00666937       6.79058661        0       1.00000000       1.34719289      -0.38583943       2.03978162
19
Lattice="5.612310241546866 0.0 0.0 0.0 4.860403243099165 0.0 0.0 0.0 24.582432123328676" Properties=species:S:1:pos:R:3:tags:I:1:masses:R:1:momenta:R:3 KEmax=24.559391461069055 iter=699 volume=670.5618179858607 ns_energy=8.62470320047181 last_walked_iter_clone=614 ns_P=0.0 config_n_global=699 ns_KE=17.830111505421684 pbc="T T T"
H        1.40307756       0.81006721      10.00000000        3       1.00000000       0.00000000       0.00000000       0.00000000
H        4.20923268       0.81006721      10.00000000        3       1.00000000       0.00000000       0.00000000       0.00000000
H        0.00000000       3.24026883      10.00000000        3       1.00000000       0.00000000       0.00000000       0.00000000
H        2.80615512       3.24026883      10.00000000        3       1.00000000       0.00000000       0.00000000       0.00000000
H        0.00000000       1.62013441      12.29121606        2       1.00000000       0.00000000       0.00000000       0.00000000
H        2.80615512       1.62013441      12.29121606        2       1.00000000       0.00000000       0.00000000       0.00000000
H        1.40307756       4.05033604      12.29121606        2       1.00000000       0.00000000       0.00000000       0.00000000
H        4.20923268       4.05033604      12.29121606        2       1.00000000       0.00000000       0.00000000       0.00000000
H        0.00000000       0.00000000      14.58243212        1       1.00000000       0.00000000       0.00000000       0.00000000
H        2.80615512       0.00000000      14.58243212        1       1.00000000       0.00000000       0.00000000       0.00000000
H        1.40307756       2.43020162      14.58243212        1       1.00000000       0.00000000       0.00000000       0.00000000
H        4.20923268       2.43020162      14.58243212        1       1.00000000       0.00000000       0.00000000       0.00000000
H        3.78704882       2.68984645      19.14402554        0       1.00000000      -0.57533651      -1.97164755      -1.04730045
H        3.15450576       0.44030523      17.20189262        0       1.00000000       1.74549136       0.08910083      -0.20388861
H        5.16491199       2.26130032      17.00350856        0       1.00000000      -1.20029666      -1.52794583      -1.79770073
H        2.12211225       2.04077643       6.13435937        0       1.00000000       1.60789746       1.77924095      -0.77492159
H        1.24643846       4.79019415       7.43632392        0       1.00000000      -0.53155872       1.58265486      -2.74829794
H        4.30430323       1.33565169       1.12530050        0       1.00000000      -0.30243817      -1.55632533      -0.81727730
H        2.00520141       2.36515236      23.15668785        0       1.00000000      -0.49642312      -0.27187844       0.21846855
19
Lattice="5.612310241546866 0.0 0.0 0.0 4.860403243099165 0.0 0.0 0.0 24.582432123328676" Properties=species:S:1:pos:R:3:tags:I:1:masses:R:1:momenta:R:3 KEmax=24.559391461069055 iter=799 volume=670.5618179858607 ns_energy=7.4691557921342175 last_walked_iter_clone=673 ns_P=0.0 config_n_global=799 ns_KE=15.918087185933407 pbc="T T T"
H        1.40307756       0.81006721      10.00000000        3       1.00000000       0.00000000       0.00000000       0.00000000
H        4.20923268       0.81006721      10.00000000        3       1.00000000       0.00000000       0.00000000       0.00000000
H        0.00000000       3.24026883      10.00000000        3       1.00000000       0.00000000       0.00000000       0.00000000
H        2.80615512       3.24026883      10.00000000        3       1.00000000       0.00000000       0.00000000       0.00000000
H        0.00000000       1.62013441      12.29121606        2       1.00000000       0.00000000       0.00000000       0.00000000
H        2.80615512       1.62013441      12.29121606        2       1.00000000       0.00000000       0.00000000       0.00000000
H        1.40307756       4.05033604      12.29121606        2       1.00000000       0.00000000       0.00000000       0.00000000
H        4.20923268       4.05033604      12.29121606        2       1.00000000       0.00000000       0.00000000       0.00000000
H        0.00000000       0.00000000      14.58243212        1       1.00000000       0.00000000       0.00000000       0.00000000
H        2.80615512       0.00000000      14.58243212        1       1.00000000       0.00000000       0.00000000       0.00000000
H        1.40307756       2.43020162      14.58243212        1       1.00000000       0.00000000       0.00000000       0.00000000
H        4.20923268       2.43020162      14.58243212        1       1.00000000       0.00000000       0.00000000       0.00000000
H        1.92457943       2.80458523       5.67837475        0       1.00000000      -0.84471044      -1.18806701      -2.50515687
H        2.62990716       0.48038509       2.66284823        0       1.00000000      -2.79541054       0.16268291       1.15828208
H        3.52908208       4.74682292      19.69071034        0       1.00000000       0.36031188       0.93097686      -0.12975037
H        3.90622013       1.34953726      17.40775421        0       1.00000000       1.84493020      -0.48940243       0.52440815
H        1.28362841       2.66989938       2.89130716        0       1.00000000       0.58696936       0.70185852       0.03404549
H        1.12264386       4.24388796      18.23729782        0       1.00000000       0.91148355       0.17873163       1.18069782
H        4.69576150       2.37229939       2.27247998        0       1.00000000      -1.98941893      -0.16896040       1.49660619
19
Lattice="5.612310241546866 0.0 0.0 0.0 4.860403243099165 0.0 0.0 0.0 24.582432123328676" Properties=species:S:1:pos:R:3:tags:I:1:masses:R:1:momenta:R:3 KEmax=24.559391461069055 iter=899 volume=670.5618179858607 ns_energy=6.469342912139877 last_walked_iter_clone=786 ns_P=0.0 config_n_global=899 ns_KE=13.705383945976656 pbc="T T T"
H        1.40307756       0.81006721      10.00000000        3       1.00000000       0.00000000       0.00000000       0.00000000
H        4.20923268       0.81006721      10.00000000        3       1.00000000       0.00000000       0.00000000       0.00000000
H        0.00000000       3.24026883      10.00000000        3       1.00000000       0.00000000       0.00000000       0.00000000
H        2.80615512       3.24026883      10.00000000        3       1.00000000       0.00000000       0.00000000       0.00000000
H        0.00000000       1.62013441      12.29121606        2       1.00000000       0.00000000       0.00000000       0.00000000
H        2.80615512       1.62013441      12.29121606        2       1.00000000       0.00000000       0.00000000       0.00000000
H        1.40307756       4.05033604      12.29121606        2       1.00000000       0.00000000       0.00000000       0.00000000
H        4.20923268       4.05033604      12.29121606        2       1.00000000       0.00000000       0.00000000       0.00000000
H        0.00000000       0.00000000      14.58243212        1       1.00000000       0.00000000       0.00000000       0.00000000
H        2.80615512       0.00000000      14.58243212        1       1.00000000       0.00000000       0.00000000       0.00000000
H        1.40307756       2.43020162      14.58243212        1       1.00000000       0.00000000       0.00000000       0.00000000
H        4.20923268       2.43020162      14.58243212        1       1.00000000       0.00000000       0.00000000       0.00000000
H        2.50568834       1.90141265       5.73303478        0       1.00000000      -0.31674792      -0.47121083      -0.79693836
H        0.28618392       2.31940146       3.22710869        0       1.00000000      -1.44323305       1.18206831      -0.12012820
H        4.42632875       3.08239547      18.09269028        0       1.00000000       2.08172294      -0.26539648       2.05372417
H        0.30590369       0.86381192      22.27794045        0       1.00000000       0.78991511      -0.41661322       1.88383908
H        4.72978768       2.08364154       5.88984344        0       1.00000000      -1.56518186      -1.39858102      -0.49741884
H        0.31165812       0.21238135       6.05012303        0       1.00000000      -0.77360988      -0.98661499      -1.85312187
H        4.50842764       4.06973159       8.05982081        0       1.00000000      -0.31292965       0.28294231       0.39154511
19
Lattice="5.612310241546866 0.0 0.0 0.0 4.860403243099165 0.0 0.0 0.0 24.582432123328676" Properties=species:S:1:pos:R:3:tags:I:1:masses:R:1:momenta:R:3 KEmax=24.559391461069055 iter=999 volume=670.5618179858607 ns_energy=5.524821010284708 last_walked_iter_clone=965 ns_P=0.0 config_n_global=999 ns_KE=13.465470822263024 pbc="T T T"
H        1.40307756       0.81006721      10.00000000        3       1.00000000       0.00000000       0.00000000       0.00000000
H        4.20923268       0.81006721      10.00000000        3       1.00000000       0.00000000       0.00000000       0.00000000
H        0.00000000       3.24026883      10.00000000        3       1.00000000       0.00000000       0.00000000       0.00000000
H        2.80615512       3.24026883      10.00000000        3       1.00000000       0.00000000       0.00000000       0.00000000
H        0.00000000       1.62013441      12.29121606        2       1.00000000       0.00000000       0.00000000       0.00000000
H        2.80615512       1.62013441      12.29121606        2       1.00000000       0.00000000       0.00000000       0.00000000
H        1.40307756       4.05033604      12.29121606        2       1.00000000       0.00000000       0.00000000       0.00000000
H        4.20923268       4.05033604      12.29121606        2       1.00000000       0.00000000       0.00000000       0.00000000
H        0.00000000       0.00000000      14.58243212        1       1.00000000       0.00000000       0.00000000       0.00000000
H        2.80615512       0.00000000      14.58243212        1       1.00000000       0.00000000       0.00000000       0.00000000
H        1.40307756       2.43020162      14.58243212        1       1.00000000       0.00000000       0.00000000       0.00000000
H        4.20923268       2.43020162      14.58243212        1       1.00000000       0.00000000       0.00000000       0.00000000
H        4.44002990       1.40257997       0.06075182        0       1.00000000      -0.35346462       1.05382223      -0.17601988
H        3.45142183       4.22257900      24.52060819        0       1.00000000       1.68958698      -0.36153178       1.02378132
H        2.06019164       1.62059605       7.84241251        0       1.00000000       0.19972608       0.15852571      -0.65841480
H        1.65674385       0.96931414      21.03075749        0       1.00000000       0.88831430      -1.56373757      -0.76981366
H        1.06225682       3.55557499       1.95529324        0       1.00000000       0.69450917      -3.27470867      -0.11511572
H        5.66377573       3.97609948       5.23757701        0       1.00000000       0.78666007      -1.62644323      -0.07472302
H        1.92828867       1.46857678       5.05433949        0       1.00000000       0.36016676       1.16923132       1.14871773
19
Lattice="5.612310241546866 0.0 0.0 0.0 4.860403243099165 0.0 0.0 0.0 24.582432123328676" Properties=species:S:1:pos:R:3:tags:I:1:masses:R:1:momenta:R:3 KEmax=24.559391461069055 iter=1099 volume=670.5618179858607 ns_energy=4.644663544872488 last_walked_iter_clone=892 ns_P=0.0 config_n_global=1099 ns_KE=12.152134085672417 pbc="T T T"
H        1.40307756       0.81006721      10.00000000        3       1.00000000       0.00000000       0.00000000       0.00000000
H        4.20923268       0.81006721      10.00000000        3       1.00000000       0.00000000       0.00000000       0.00000000
H        0.00000000       3.24026883      10.00000000        3       1.00000000       0.00000000       0.00000000       0.00000000
H        2.80615512       3.24026883      10.00000000        3       1.00000000       0.00000000       0.00000000       0.00000000
H        0.00000000       1.62013441      12.29121606        2       1.00000000       0.00000000       0.00000000       0.00000000
H        2.80615512       1.62013441      12.29121606        2       1.00000000       0.00000000       0.00000000       0.00000000
H        1.40307756       4.05033604      12.29121606        2       1.00000000       0.00000000       0.00000000       0.00000000
H        4.20923268       4.05033604      12.29121606        2       1.00000000       0.00000000       0.00000000       0.00000000
H        0.00000000       0.00000000      14.58243212        1       1.00000000       0.00000000       0.00000000       0.00000000
H        2.80615512       0.00000000      14.58243212        1       1.00000000       0.00000000       0.00000000       0.00000000