18
Lattice="5.612310241546866 0.0 0.0 0.0 4.860403243099165 0.0 0.0 0.0 14.582432123328676" Properties=species:S:1:pos:R:3:tags:I:1:masses:R:1:momenta:R:3:forces:R:3 KEmax=23.26679191048647 iter=239999 volume=397.78090899293073 ns_energy=-11.638031575010993 last_walked_iter_clone=239852 energy=-11.6380274706228 stress="0.02259909493535918 -2.5189516520705296e-08 -1.3491723909138474e-10 -2.5189516520705296e-08 0.022713566442764597 1.9707938838195515e-08 -1.3491723909138474e-10 1.9707938838195515e-08 0.012286254816054817" pbc="T T F"
H        1.40307756       0.81006721       5.00000000        3       1.00000000       0.00000000       0.00000000       0.00000000       0.00000000       0.00000000       0.00000000
H        4.20923268       0.81006721       5.00000000        3       1.00000000       0.00000000       0.00000000       0.00000000       0.00000000       0.00000000       0.00000000
H        0.00000000       3.24026883       5.00000000        3       1.00000000       0.00000000       0.00000000       0.00000000       0.00000000       0.00000000       0.00000000
H        2.80615512       3.24026883       5.00000000        3       1.00000000       0.00000000       0.00000000       0.00000000       0.00000000       0.00000000       0.00000000
H        0.00000000       1.62013441       7.29121606        2       1.00000000       0.00000000       0.00000000       0.00000000       0.00000000       0.00000000       0.00000000
H        2.80615512       1.62013441       7.29121606        2       1.00000000       0.00000000       0.00000000       0.00000000       0.00000000       0.00000000       0.00000000
H        1.40307756       4.05033604       7.29121606        2       1.00000000       0.00000000       0.00000000       0.00000000       0.00000000       0.00000000       0.00000000
H        4.20923268       4.05033604       7.29121606        2       1.00000000       0.00000000       0.00000000       0.00000000       0.00000000       0.00000000       0.00000000
H        0.00000000       0.00000000       9.58243212        1       1.00000000       0.00000000       0.00000000       0.00000000       0.00000000       0.00000000       0.00000000
H        2.80615512       0.00000000       9.58243212        1       1.00000000       0.00000000       0.00000000       0.00000000       0.00000000       0.00000000       0.00000000
H        1.40307756       2.43020162       9.58243212        1       1.00000000       0.00000000       0.00000000       0.00000000       0.00000000       0.00000000       0.00000000
H        4.20923268       2.43020162       9.58243212        1       1.00000000       0.00000000       0.00000000       0.00000000       0.00000000       0.00000000       0.00000000
H        1.41300911       4.05018944      11.81113080        0       1.00000000      -0.00000071      -0.00000045      -0.00000019      -0.00000046       0.00000489       0.00000145
H        4.20923223       4.05033638       2.77136710        0       1.00000000      -0.00000125      -0.00000112       0.00000010       0.00257499       0.00263977      -0.00000243
H        5.60237894       1.61998835      11.81113038        0       1.00000000       0.00000053      -0.00000024      -0.00000043       0.00000013      -0.00000564      -0.00000006
H        1.40307688       4.05033656       2.77136732        0       1.00000000      -0.00000026      -0.00000158       0.00000004      -0.00257621       0.00259765      -0.00000230
H        2.80615464       1.62013464       2.77136706        0       1.00000000      -0.00000056       0.00000071      -0.00000057      -0.00164967      -0.00258583      -0.00000081
H       -0.00000005       1.62013464       2.77136723        0       1.00000000      -0.00000073       0.00000013       0.00000066       0.00165054      -0.00264974       0.00000122
18
Lattice="5.612310241546866 0.0 0.0 0.0 4.860403243099165 0.0 0.0 0.0 14.582432123328676" Properties=species:S:1:pos:R:3:tags:I:1:masses:R:1:momenta:R:3:forces:R:3 KEmax=23.26679191048647 iter=239999 volume=397.78090899293073 ns_energy=-11.638031575010933 last_walked_iter_clone=234315 energy=-11.6380274706228 stress="0.02259909493535918 -2.5189516520705296e-08 -1.3491723909138474e-10 -2.5189516520705296e-08 0.022713566442764597 1.9707938838195515e-08 -1.3491723909138474e-10 1.9707938838195515e-08 0.012286254816054817" pbc="T T F"
H        1.40307756       0.81006721       5.00000000        3       1.00000000       0.00000000       0.00000000       0.00000000       0.00000000       0.00000000       0.00000000
H        4.20923268       0.81006721       5.00000000        3       1.00000000       0.00000000       0.00000000       0.00000000       0.00000000       0.00000000       0.00000000
H        0.00000000       3.24026883       5.00000000        3       1.00000000       0.00000000       0.00000000       0.00000000       0.00000000       0.00000000       0.00000000
H        2.80615512       3.24026883       5.00000000        3       1.00000000       0.00000000       0.00000000       0.00000000       0.00000000       0.00000000       0.00000000
H        0.00000000       1.62013441       7.29121606        2       1.00000000       0.00000000       0.00000000       0.00000000       0.00000000       0.00000000       0.00000000
H        2.80615512       1.62013441       7.29121606        2       1.00000000       0.00000000       0.00000000       0.00000000       0.00000000       0.00000000       0.00000000
H        1.40307756       4.05033604       7.29121606        2       1.00000000       0.00000000       0.00000000       0.00000000       0.00000000       0.00000000       0.00000000
H        4.20923268       4.05033604       7.29121606        2       1.00000000       0.00000000       0.00000000       0.00000000       0.00000000       0.00000000       0.00000000
H        0.00000000       0.00000000       9.58243212        1       1.00000000       0.00000000       0.00000000       0.00000000       0.00000000       0.00000000       0.00000000
H        2.80615512       0.00000000       9.58243212        1       1.00000000       0.00000000       0.00000000       0.00000000       0.00000000       0.00000000       0.00000000
H        1.40307756       2.43020162       9.58243212        1       1.00000000       0.00000000       0.00000000       0.00000000       0.00000000       0.00000000       0.00000000
H        4.20923268       2.43020162       9.58243212        1       1.00000000       0.00000000       0.00000000       0.00000000       0.00000000       0.00000000       0.00000000
H        1.41300870       4.05018863      11.81113035        0       1.00000000      -0.00000011      -0.00000085       0.00000021      -0.00000046       0.00000489       0.00000145
H        4.20923255       4.05033663       2.77136718        0       1.00000000      -0.00000064      -0.00000034       0.00000041       0.00257499       0.00263977      -0.00000243
H        5.60237939       1.61998713      11.81112992        0       1.00000000      -0.00000100       0.00000116      -0.00000015       0.00000013      -0.00000564      -0.00000006
H        1.40307686       4.05033648       2.77136683        0       1.00000000       0.00000039       0.00000029       0.00000020      -0.00257621       0.00259765      -0.00000230
H        2.80615509       1.62013501       2.77136682        0       1.00000000       0.00000020       0.00000004      -0.00000059      -0.00164967      -0.00258583      -0.00000081
H       -0.00000002       1.62013511       2.77136708        0       1.00000000      -0.00000095       0.00000157       0.00000021       0.00165054      -0.00264974       0.00000122
18
Lattice="5.612310241546866 0.0 0.0 0.0 4.860403243099165 0.0 0.0 0.0 14.582432123328676" Properties=species:S:1:pos:R:3:tags:I:1:masses:R:1:momenta:R:3:forces:R:3 KEmax=23.26679191048647 iter=239999 volume=397.78090899293073 ns_energy=-11.638031575010952 last_walked_iter_clone=238197 energy=-11.6380274706228 stress="0.02259909493535918 -2.5189516520705296e-08 -1.3491723909138474e-10 -2.5189516520705296e-08 0.022713566442764597 1.9707938838195515e-08 -1.3491723909138474e-10 1.9707938838195515e-08 0.012286254816054817" pbc="T T F"
H        1.40307756       0.81006721       5.00000000        3       1.00000000       0.00000000       0.00000000       0.00000000       0.00000000       0.00000000       0.00000000
H        4.20923268       0.81006721       5.00000000        3       1.00000000       0.00000000       0.00000000       0.00000000       0.00000000       0.00000000       0.00000000
H        0.00000000       3.24026883       5.00000000        3       1.00000000       0.00000000       0.00000000       0.00000000       0.00000000       0.00000000       0.00000000
H        2.80615512       3.24026883       5.00000000        3       1.00000000       0.00000000       0.00000000       0.00000000       0.00000000       0.00000000       0.00000000
H        0.00000000       1.62013441       7.29121606        2       1.00000000       0.00000000       0.00000000       0.00000000       0.00000000       0.00000000       0.00000000
H        2.80615512       1.62013441       7.29121606        2       1.00000000       0.00000000       0.00000000       0.00000000       0.00000000       0.00000000       0.00000000
H        1.40307756       4.05033604       7.29121606        2       1.00000000       0.00000000       0.00000000       0.00000000       0.00000000       0.00000000       0.00000000
H        4.20923268       4.05033604       7.29121606        2       1.00000000       0.00000000       0.00000000       0.00000000       0.00000000       0.00000000       0.00000000
H        0.00000000       0.00000000       9.58243212        1       1.00000000       0.00000000       0.00000000       0.00000000       0.00000000       0.00000000       0.00000000
H        2.80615512       0.00000000       9.58243212        1       1.00000000       0.00000000       0.00000000       0.00000000       0.00000000       0.00000000       0.00000000
H        1.40307756       2.43020162       9.58243212        1       1.00000000       0.00000000       0.00000000       0.00000000       0.00000000       0.00000000       0.00000000
H        4.20923268       2.43020162       9.58243212        1       1.00000000       0.00000000       0.00000000       0.00000000       0.00000000       0.00000000       0.00000000
H        1.41300895       4.05018903      11.81113083        0       1.00000000       0.00000026       0.00000142       0.00000060      -0.00000046       0.00000489       0.00000145
H        4.20923280       4.05033573       2.77136719        0       1.00000000       0.00000117       0.00000019      -0.00000059       0.00257499       0.00263977      -0.00000243
H        5.60237892       1.61998757      11.81113036        0       1.00000000      -0.00000065       0.00000085      -0.00000020       0.00000013      -0.00000564      -0.00000006
H        1.40307761       4.05033602       2.77136717        0       1.00000000      -0.00000119      -0.00000115       0.00000033      -0.00257621       0.00259765      -0.00000230
H        2.80615564       1.62013396       2.77136698        0       1.00000000       0.00000071      -0.00000051       0.00000070      -0.00164967      -0.00258583      -0.00000081
H        0.00000048       1.62013452       2.77136725        0       1.00000000       0.00000031       0.00000011      -0.00000077       0.00165054      -0.00264974       0.00000122
18
Lattice="5.612310241546866 0.0 0.0 0.0 4.860403243099165 0.0 0.0 0.0 14.582432123328676" Properties=species:S:1:pos:R:3:tags:I:1:masses:R:1:momenta:R:3:forces:R:3 KEmax=23.26679191048647 iter=239999 volume=397.78090899293073 ns_energy=-11.638031575010901 last_walked_iter_clone=238551 energy=-11.6380274706228 stress="0.02259909493535918 -2.5189516520705296e-08 -1.3491723909138474e-10 -2.5189516520705296e-08 0.022713566442764597 1.9707938838195515e-08 -1.3491723909138474e-10 1.9707938838195515e-08 0.012286254816054817" pbc="T T F"
H        1.40307756       0.81006721       5.00000000        3       1.00000000       0.00000000       0.00000000       0.00000000       0.00000000       0.00000000       0.00000000
H        4.20923268       0.81006721       5.00000000        3       1.00000000       0.00000000       0.00000000       0.00000000       0.00000000       0.00000000       0.00000000
H        0.00000000       3.24026883       5.00000000        3       1.00000000       0.00000000       0.00000000       0.00000000       0.00000000       0.00000000       0.00000000
H        2.80615512       3.24026883       5.00000000        3       1.00000000       0.00000000       0.00000000       0.00000000       0.00000000       0.00000000       0.00000000
H        0.00000000       1.62013441       7.29121606        2       1.00000000       0.00000000       0.00000000       0.00000000       0.00000000       0.00000000       0.00000000
H        2.80615512       1.62013441       7.29121606        2       1.00000000       0.00000000       0.00000000       0.00000000       0.00000000       0.00000000       0.00000000
H        1.40307756       4.05033604       7.29121606        2       1.00000000       0.00000000       0.00000000       0.00000000       0.00000000       0.00000000       0.00000000
H        4.20923268       4.05033604       7.29121606        2       1.00000000       0.00000000       0.00000000       0.00000000       0.00000000       0.00000000       0.00000000
H        0.00000000       0.00000000       9.58243212        1       1.00000000       0.00000000       0.00000000       0.00000000       0.00000000       0.00000000       0.00000000
H        2.80615512       0.00000000       9.58243212        1       1.00000000       0.00000000       0.00000000       0.00000000       0.00000000       0.00000000       0.00000000
H        1.40307756       2.43020162       9.58243212        1       1.00000000       0.00000000       0.00000000       0.00000000       0.00000000       0.00000000       0.00000000
H        4.20923268       2.43020162       9.58243212        1       1.00000000       0.00000000       0.00000000       0.00000000       0.00000000       0.00000000       0.00000000
H        1.41300830       4.05018893      11.81113067        0       1.00000000       0.00000113      -0.00000002      -0.00000117      -0.00000046       0.00000489       0.00000145
H        4.20923244       4.05033643       2.77136716        0       1.00000000      -0.00000023       0.00000000      -0.00000023       0.00257499       0.00263977      -0.00000243
H        5.60237947       1.61998809      11.81113027        0       1.00000000       0.00000017       0.00000014      -0.00000050       0.00000013      -0.00000564      -0.00000006
H        1.40307730       4.05033602       2.77136708        0       1.00000000      -0.00000064      -0.00000028      -0.00000088      -0.00257621       0.00259765      -0.00000230
H        2.80615511       1.62013458       2.77136694        0       1.00000000      -0.00000157      -0.00000008      -0.00000052      -0.00164967      -0.00258583      -0.00000081
H        0.00000047       1.62013493       2.77136732        0       1.00000000      -0.00000101      -0.00000068       0.00000052       0.00165054      -0.00264974       0.00000122
18
Lattice="5.612310241546866 0.0 0.0 0.0 4.860403243099165 0.0 0.0 0.0 14.582432123328676" Properties=species:S:1:pos:R:3:tags:I:1:masses:R:1:momenta:R:3:forces:R:3 KEmax=23.26679191048647 iter=239999 volume=397.78090899293073 ns_energy=-11.63803157501092 last_walked_iter_clone=239959 energy=-11.6380274706228 stress="0.02259909493535918 -2.5189516520705296e-08 -1.3491723909138474e-10 -2.5189516520705296e-08 0.022713566442764597 1.9707938838195515e-08 -1.3491723909138474e-10 1.9707938838195515e-08 0.012286254816054817" pbc="T T F"
H        1.40307756       0.81006721       5.00000000        3       1.00000000       0.00000000       0.00000000       0.00000000       0.00000000       0.00000000       0.00000000
H        4.20923268       0.81006721       5.00000000        3       1.00000000       0.00000000       0.00000000       0.00000000       0.00000000       0.00000000       0.00000000
H        0.00000000       3.24026883       5.00000000        3       1.00000000       0.00000000       0.00000000       0.00000000       0.00000000       0.00000000       0.00000000
H        2.80615512       3.24026883       5.00000000        3       1.00000000       0.00000000       0.00000000       0.00000000       0.00000000       0.00000000       0.00000000
H        0.00000000       1.62013441       7.29121606        2       1.00000000       0.00000000       0.00000000       0.00000000       0.00000000       0.00000000       0.00000000
H        2.80615512       1.62013441       7.29121606        2       1.00000000       0.00000000       0.00000000       0.00000000       0.00000000       0.00000000       0.00000000
H        1.40307756       4.05033604       7.29121606        2       1.00000000       0.00000000       0.00000000       0.00000000       0.00000000       0.00000000       0.00000000
H        4.20923268       4.05033604       7.29121606        2       1.00000000       0.00000000       0.00000000       0.00000000       0.00000000       0.00000000       0.00000000
H        0.00000000       0.00000000       9.58243212        1       1.00000000       0.00000000       0.00000000       0.00000000       0.00000000       0.00000000       0.00000000
H        2.80615512       0.00000000       9.58243212        1       1.00000000       0.00000000       0.00000000       0.00000000       0.00000000       0.00000000       0.00000000
H        1.40307756       2.43020162       9.58243212        1       1.00000000       0.00000000       0.00000000       0.00000000       0.00000000       0.00000000       0.00000000
H        4.20923268       2.43020162       9.58243212        1       1.00000000       0.00000000       0.00000000       0.00000000       0.00000000       0.00000000       0.00000000
H        1.41300870       4.05018863      11.81113035        0       1.00000000       0.00000002       0.00000019       0.00000107      -0.00000046       0.00000489       0.00000145
H        4.20923255       4.05033663       2.77136718        0       1.00000000       0.00000084      -0.00000006      -0.00000071       0.00257499       0.00263977      -0.00000243
H        5.60237939       1.61998713      11.81112992        0       1.00000000       0.00000159      -0.00000004       0.00000073       0.00000013      -0.00000564      -0.00000006
H        1.40307686       4.05033648       2.77136683        0       1.00000000       0.00000003       0.00000067       0.00000037      -0.00257621       0.00259765      -0.00000230
H        2.80615509       1.62013501       2.77136682        0       1.00000000       0.00000018       0.00000004       0.00000031      -0.00164967      -0.00258583      -0.00000081
H       -0.00000002       1.62013511       2.77136708        0       1.00000000       0.00000003      -0.00000079       0.00000103       0.00165054      -0.00264974       0.00000122
18
Lattice="5.612310241546866 0.0 0.0 0.0 4.860403243099165 0.0 0.0 0.0 14.582432123328676" Properties=species:S:1:pos:R:3:tags:I:1:masses:R:1:momenta:R:3:forces:R:3 KEmax=23.26679191048647 iter=239999 volume=397.78090899293073 ns_energy=-11.638031575010958 last_walked_iter_clone=239202 energy=-11.6380274706228 stress="0.02259909493535918 -2.5189516520705296e-08 -1.3491723909138474e-10 -2.5189516520705296e-08 0.022713566442764597 1.9707938838195515e-08 -1.3491723909138474e-10 1.9707938838195515e-08 0.012286254816054817" pbc="T T F"
H        1.40307756       0.81006721       5.00000000        3       1.00000000       0.00000000       0.00000000       0.00000000       0.00000000       0.00000000       0.00000000
H        4.20923268       0.81006721       5.00000000        3       1.00000000       0.00000000       0.00000000       0.00000000       0.00000000       0.00000000       0.00000000
H        0.00000000       3.24026883       5.00000000        3       1.00000000       0.00000000       0.00000000       0.00000000       0.00000000       0.00000000       0.00000000
H        2.80615512       3.24026883       5.00000000        3       1.00000000       0.00000000       0.00000000       0.00000000       0.00000000       0.00000000       0.00000000
H        0.00000000       1.62013441       7.29121606        2       1.00000000       0.00000000       0.00000000       0.00000000       0.00000000       0.00000000       0.00000000
H        2.80615512       1.62013441       7.29121606        2       1.00000000       0.00000000       0.00000000       0.00000000       0.00000000       0.00000000       0.00000000
H        1.40307756       4.05033604       7.29121606        2       1.00000000       0.00000000       0.00000000       0.00000000       0.00000000       0.00000000       0.00000000
H        4.20923268       4.05033604       7.29121606        2       1.00000000       0.00000000       0.00000000       0.00000000       0.00000000       0.00000000       0.00000000
H        0.00000000       0.00000000       9.58243212        1       1.00000000       0.00000000       0.00000000       0.00000000       0.00000000       0.00000000       0.00000000
H        2.80615512       0.00000000       9.58243212        1       1.00000000       0.00000000       0.00000000       0.00000000       0.00000000       0.00000000       0.00000000
H        1.40307756       2.43020162       9.58243212        1       1.00000000       0.00000000       0.00000000       0.00000000       0.00000000       0.00000000       0.00000000
H        4.20923268       2.43020162       9.58243212        1       1.00000000       0.00000000       0.00000000       0.00000000       0.00000000       0.00000000       0.00000000
H        1.41300899       4.05018903      11.81113083        0       1.00000000      -0.00000070      -0.00000003      -0.00000082      -0.00000046       0.00000489       0.00000145
H        4.20923280       4.05033572       2.77136720        0       1.00000000       0.00000034       0.00000136      -0.00000145       0.00257499       0.00263977      -0.00000243
H        5.60237884       1.61998759      11.81113037        0       1.00000000       0.00000059      -0.00000061       0.00000054       0.00000013      -0.00000564      -0.00000006
H        1.40307761       4.05033598       2.77136717        0       1.00000000      -0.00000062      -0.00000091       0.00000013      -0.00257621       0.00259765      -0.00000230
H        2.80615565       1.62013398       2.77136699        0       1.00000000       0.00000037      -0.00000079       0.00000026      -0.00164967      -0.00258583      -0.00000081
H        0.00000047       1.62013462       2.77136724        0       1.00000000      -0.00000002      -0.00000117      -0.00000044       0.00165054      -0.00264974       0.00000122
18
Lattice="5.612310241546866 0.0 0.0 0.0 4.860403243099165 0.0 0.0 0.0 14.582432123328676" Properties=species:S:1:pos:R:3:tags:I:1:masses:R:1:momenta:R:3:forces:R:3 KEmax=23.26679191048647 iter=239999 volume=397.78090899293073 ns_energy=-11.638031575010913 last_walked_iter_clone=239132 energy=-11.6380274706228 stress="0.02259909493535918 -2.5189516520705296e-08 -1.3491723909138474e-10 -2.5189516520705296e-08 0.022713566442764597 1.9707938838195515e-08 -1.3491723909138474e-10 1.9707938838195515e-08 0.012286254816054817" pbc="T T F"
H        1.40307756       0.81006721       5.00000000        3       1.00000000       0.00000000       0.00000000       0.00000000       0.00000000       0.00000000       0.00000000
H        4.20923268       0.81006721       5.00000000        3       1.00000000       0.00000000       0.00000000       0.00000000       0.00000000       0.00000000       0.00000000
H        0.00000000       3.24026883       5.00000000        3       1.00000000       0.00000000       0.00000000       0.00000000       0.00000000       0.00000000       0.00000000
H        2.80615512       3.24026883       5.00000000        3       1.00000000       0.00000000       0.00000000       0.00000000       0.00000000       0.00000000       0.00000000
H        0.00000000       1.62013441       7.29121606        2       1.00000000       0.00000000       0.00000000       0.00000000       0.00000000       0.00000000       0.00000000
H        2.80615512       1.62013441       7.29121606        2       1.00000000       0.00000000       0.00000000       0.00000000       0.00000000       0.00000000       0.00000000
H        1.40307756       4.05033604       7.29121606        2       1.00000000       0.00000000       0.00000000       0.00000000       0.00000000       0.00000000       0.00000000
H        4.20923268       4.05033604       7.29121606        2       1.00000000       0.00000000       0.00000000       0.00000000       0.00000000       0.00000000       0.00000000
H        0.00000000       0.00000000       9.58243212        1       1.00000000       0.00000000       0.00000000       0.00000000       0.00000000       0.00000000       0.00000000
H        2.80615512       0.00000000       9.58243212        1       1.00000000       0.00000000       0.00000000       0.00000000       0.00000000       0.00000000       0.00000000
H        1.40307756       2.43020162       9.58243212        1       1.00000000       0.00000000       0.00000000       0.00000000       0.00000000       0.00000000       0.00000000
H        4.20923268       2.43020162       9.58243212        1       1.00000000       0.00000000       0.00000000       0.00000000       0.00000000       0.00000000       0.00000000
H        1.41300895       4.05018903      11.81113083        0       1.00000000      -0.00000092      -0.00000111       0.00000001      -0.00000046       0.00000489       0.00000145
H        4.20923280       4.05033573       2.77136719        0       1.00000000       0.00000126      -0.00000077       0.00000163       0.00257499       0.00263977      -0.00000243
H        5.60237892       1.61998757      11.81113036        0       1.00000000       0.00000025       0.00000022      -0.00000110       0.00000013      -0.00000564      -0.00000006
H        1.40307761       4.05033602       2.77136717        0       1.00000000      -0.00000070      -0.00000030      -0.00000028      -0.00257621       0.00259765      -0.00000230
H        2.80615564       1.62013396       2.77136698        0       1.00000000      -0.00000072       0.00000020      -0.00000006      -0.00164967      -0.00258583      -0.00000081
H        0.00000048       1.62013452       2.77136725        0       1.00000000      -0.00000006       0.00000005      -0.00000037       0.00165054      -0.00264974       0.00000122
18
Lattice="5.612310241546866 0.0 0.0 0.0 4.860403243099165 0.0 0.0 0.0 14.582432123328676" Properties=species:S:1:pos:R:3:tags:I:1:masses:R:1:momenta:R:3:forces:R:3 KEmax=23.26679191048647 iter=239999 volume=397.78090899293073 ns_energy=-11.638031575010931 last_walked_iter_clone=234701 energy=-11.6380274706228 stress="0.02259909493535918 -2.5189516520705296e-08 -1.3491723909138474e-10 -2.5189516520705296e-08 0.022713566442764597 1.9707938838195515e-08 -1.3491723909138474e-10 1.9707938838195515e-08 0.012286254816054817" pbc="T T F"
H        1.40307756       0.81006721       5.00000000        3       1.00000000       0.00000000       0.00000000       0.00000000       0.00000000       0.00000000       0.00000000
H        4.20923268       0.81006721       5.00000000        3       1.00000000       0.00000000       0.00000000       0.00000000       0.00000000       0.00000000       0.00000000
H        0.00000000       3.24026883       5.00000000        3       1.00000000       0.00000000       0.00000000       0.00000000       0.00000000       0.00000000       0.00000000
H        2.80615512       3.24026883       5.00000000        3       1.00000000       0.00000000       0.00000000       0.00000000       0.00000000       0.00000000       0.00000000
H        0.00000000       1.62013441       7.29121606        2       1.00000000       0.00000000       0.00000000       0.00000000       0.00000000       0.00000000       0.00000000
H        2.80615512       1.62013441       7.29121606        2       1.00000000       0.00000000       0.00000000       0.00000000       0.00000000       0.00000000       0.00000000
H        1.40307756       4.05033604       7.29121606        2       1.00000000       0.00000000       0.00000000       0.00000000       0.00000000       0.00000000       0.00000000
H        4.20923268       4.05033604       7.29121606        2       1.00000000       0.00000000       0.00000000       0.00000000       0.00000000       0.00000000       0.00000000
H        0.00000000       0.00000000       9.58243212        1       1.00000000       0.00000000       0.00000000       0.00000000       0.00000000       0.00000000       0.00000000
H        2.80615512       0.00000000       9.58243212        1       1.00000000       0.00000000       0.00000000       0.00000000       0.00000000       0.00000000       0.00000000
H        1.40307756       2.43020162       9.58243212        1       1.00000000       0.00000000       0.00000000       0.00000000       0.00000000       0.00000000       0.00000000
H        4.20923268       2.43020162       9.58243212        1       1.00000000       0.00000000       0.00000000       0.00000000       0.00000000       0.00000000       0.00000000
H        1.41300913       4.05018980      11.81113092        0       1.00000000       0.00000013       0.00000090       0.00000067      -0.00000046       0.00000489       0.00000145
H        4.20923321       4.05033580       2.77136724        0       1.00000000      -0.00000034      -0.00000021       0.00000057       0.00257499       0.00263977      -0.00000243
H        5.60237910       1.61998742      11.81113028        0       1.00000000      -0.00000042      -0.00000097      -0.00000138       0.00000013      -0.00000564      -0.00000006