18
Lattice="5.612310241546866 0.0 0.0 0.0 4.860403243099165 0.0 0.0 0.0 14.582432123328676" Properties=species:S:1:pos:R:3:tags:I:1:masses:R:1:momenta:R:3:forces:R:3 KEmax=23.26679191048647 iter=169315 volume=397.78090899293073 ns_energy=-11.638031574856882 last_walked_iter_clone=168983 energy=-11.638031574930695 stress="0.022599222484640837 -7.479860468236713e-09 1.9809680967526468e-08 -7.479860468236713e-09 0.022713714069087898 4.770378871090172e-08 1.9809680967526468e-08 4.770378871090172e-08 0.012286212429708317" pbc="T T F"
H        1.40307756       0.81006721       5.00000000        3       1.00000000       0.00000000       0.00000000       0.00000000       0.00000000       0.00000000       0.00000000
H        4.20923268       0.81006721       5.00000000        3       1.00000000       0.00000000       0.00000000       0.00000000       0.00000000       0.00000000       0.00000000
H        0.00000000       3.24026883       5.00000000        3       1.00000000       0.00000000       0.00000000       0.00000000       0.00000000       0.00000000       0.00000000
H        2.80615512       3.24026883       5.00000000        3       1.00000000       0.00000000       0.00000000       0.00000000       0.00000000       0.00000000       0.00000000
H        0.00000000       1.62013441       7.29121606        2       1.00000000       0.00000000       0.00000000       0.00000000       0.00000000       0.00000000       0.00000000
H        2.80615512       1.62013441       7.29121606        2       1.00000000       0.00000000       0.00000000       0.00000000       0.00000000       0.00000000       0.00000000
H        1.40307756       4.05033604       7.29121606        2       1.00000000       0.00000000       0.00000000       0.00000000       0.00000000       0.00000000       0.00000000
H        4.20923268       4.05033604       7.29121606        2       1.00000000       0.00000000       0.00000000       0.00000000       0.00000000       0.00000000       0.00000000
H        0.00000000       0.00000000       9.58243212        1       1.00000000       0.00000000       0.00000000       0.00000000       0.00000000       0.00000000       0.00000000
H        2.80615512       0.00000000       9.58243212        1       1.00000000       0.00000000       0.00000000       0.00000000       0.00000000       0.00000000       0.00000000
H        1.40307756       2.43020162       9.58243212        1       1.00000000       0.00000000       0.00000000       0.00000000       0.00000000       0.00000000       0.00000000
H        4.20923268       2.43020162       9.58243212        1       1.00000000       0.00000000       0.00000000       0.00000000       0.00000000       0.00000000       0.00000000
H        1.41301225       4.05019154      11.81113279        0       1.00000000       0.00000029       0.00000221       0.00000165       0.00000071      -0.00000138       0.00000664
H        4.20923369       4.05033578       2.77136503        0       1.00000000       0.00000132       0.00000022      -0.00000139       0.00001350      -0.00000148      -0.00000674
H        5.60238020       1.61999303      11.81112768        0       1.00000000       0.00000326       0.00000264       0.00000278       0.00000325      -0.00000051       0.00000076
H        1.40307904       4.05033717       2.77137020        0       1.00000000      -0.00000224       0.00000332       0.00000014      -0.00000126      -0.00000540      -0.00000145
H        2.80615541       1.62013333       2.77136537        0       1.00000000      -0.00000791      -0.00000580       0.00000246      -0.00000628       0.00000809      -0.00000016
H        0.00000134       1.62013430       2.77136803        0       1.00000000      -0.00000486       0.00000247      -0.00000018       0.00000019       0.00000258       0.00000579
18
Lattice="5.612310241546866 0.0 0.0 0.0 4.860403243099165 0.0 0.0 0.0 14.582432123328676" Properties=species:S:1:pos:R:3:tags:I:1:masses:R:1:momenta:R:3:forces:R:3 KEmax=23.26679191048647 iter=169315 volume=397.78090899293073 ns_energy=-11.638031574858825 last_walked_iter_clone=169260 energy=-11.638031574930695 stress="0.022599222484640837 -7.479860468236713e-09 1.9809680967526468e-08 -7.479860468236713e-09 0.022713714069087898 4.770378871090172e-08 1.9809680967526468e-08 4.770378871090172e-08 0.012286212429708317" pbc="T T F"
H        1.40307756       0.81006721       5.00000000        3       1.00000000       0.00000000       0.00000000       0.00000000       0.00000000       0.00000000       0.00000000
H        4.20923268       0.81006721       5.00000000        3       1.00000000       0.00000000       0.00000000       0.00000000       0.00000000       0.00000000       0.00000000
H        0.00000000       3.24026883       5.00000000        3       1.00000000       0.00000000       0.00000000       0.00000000       0.00000000       0.00000000       0.00000000
H        2.80615512       3.24026883       5.00000000        3       1.00000000       0.00000000       0.00000000       0.00000000       0.00000000       0.00000000       0.00000000
H        0.00000000       1.62013441       7.29121606        2       1.00000000       0.00000000       0.00000000       0.00000000       0.00000000       0.00000000       0.00000000
H        2.80615512       1.62013441       7.29121606        2       1.00000000       0.00000000       0.00000000       0.00000000       0.00000000       0.00000000       0.00000000
H        1.40307756       4.05033604       7.29121606        2       1.00000000       0.00000000       0.00000000       0.00000000       0.00000000       0.00000000       0.00000000
H        4.20923268       4.05033604       7.29121606        2       1.00000000       0.00000000       0.00000000       0.00000000       0.00000000       0.00000000       0.00000000
H        0.00000000       0.00000000       9.58243212        1       1.00000000       0.00000000       0.00000000       0.00000000       0.00000000       0.00000000       0.00000000
H        2.80615512       0.00000000       9.58243212        1       1.00000000       0.00000000       0.00000000       0.00000000       0.00000000       0.00000000       0.00000000
H        1.40307756       2.43020162       9.58243212        1       1.00000000       0.00000000       0.00000000       0.00000000       0.00000000       0.00000000       0.00000000
H        4.20923268       2.43020162       9.58243212        1       1.00000000       0.00000000       0.00000000       0.00000000       0.00000000       0.00000000       0.00000000
H        1.41300925       4.05018904      11.81113240        0       1.00000000       0.00000081      -0.00000204       0.00000056       0.00000071      -0.00000138       0.00000664
H        4.20922910       4.05033279       2.77136751        0       1.00000000       0.00000220       0.00000375      -0.00000474       0.00001350      -0.00000148      -0.00000674
H        5.60238129       1.61999037      11.81113314        0       1.00000000      -0.00000173       0.00000029       0.00000472       0.00000325      -0.00000051       0.00000076
H        1.40307414       4.05033523       2.77136774        0       1.00000000      -0.00000305      -0.00000369      -0.00000018      -0.00000126      -0.00000540      -0.00000145
H        2.80615424       1.62013266       2.77136655        0       1.00000000       0.00000092       0.00000450      -0.00000410      -0.00000628       0.00000809      -0.00000016
H       -0.00000578       1.62013263       2.77136784        0       1.00000000       0.00000146       0.00000284      -0.00000277       0.00000019       0.00000258       0.00000579
18
Lattice="5.612310241546866 0.0 0.0 0.0 4.860403243099165 0.0 0.0 0.0 14.582432123328676" Properties=species:S:1:pos:R:3:tags:I:1:masses:R:1:momenta:R:3:forces:R:3 KEmax=23.26679191048647 iter=169315 volume=397.78090899293073 ns_energy=-11.63803157485864 last_walked_iter_clone=169188 energy=-11.638031574930695 stress="0.022599222484640837 -7.479860468236713e-09 1.9809680967526468e-08 -7.479860468236713e-09 0.022713714069087898 4.770378871090172e-08 1.9809680967526468e-08 4.770378871090172e-08 0.012286212429708317" pbc="T T F"
H        1.40307756       0.81006721       5.00000000        3       1.00000000       0.00000000       0.00000000       0.00000000       0.00000000       0.00000000       0.00000000
H        4.20923268       0.81006721       5.00000000        3       1.00000000       0.00000000       0.00000000       0.00000000       0.00000000       0.00000000       0.00000000
H        0.00000000       3.24026883       5.00000000        3       1.00000000       0.00000000       0.00000000       0.00000000       0.00000000       0.00000000       0.00000000
H        2.80615512       3.24026883       5.00000000        3       1.00000000       0.00000000       0.00000000       0.00000000       0.00000000       0.00000000       0.00000000
H        0.00000000       1.62013441       7.29121606        2       1.00000000       0.00000000       0.00000000       0.00000000       0.00000000       0.00000000       0.00000000
H        2.80615512       1.62013441       7.29121606        2       1.00000000       0.00000000       0.00000000       0.00000000       0.00000000       0.00000000       0.00000000
H        1.40307756       4.05033604       7.29121606        2       1.00000000       0.00000000       0.00000000       0.00000000       0.00000000       0.00000000       0.00000000
H        4.20923268       4.05033604       7.29121606        2       1.00000000       0.00000000       0.00000000       0.00000000       0.00000000       0.00000000       0.00000000
H        0.00000000       0.00000000       9.58243212        1       1.00000000       0.00000000       0.00000000       0.00000000       0.00000000       0.00000000       0.00000000
H        2.80615512       0.00000000       9.58243212        1       1.00000000       0.00000000       0.00000000       0.00000000       0.00000000       0.00000000       0.00000000
H        1.40307756       2.43020162       9.58243212        1       1.00000000       0.00000000       0.00000000       0.00000000       0.00000000       0.00000000       0.00000000
H        4.20923268       2.43020162       9.58243212        1       1.00000000       0.00000000       0.00000000       0.00000000       0.00000000       0.00000000       0.00000000
H        1.41300676       4.05018889      11.81113119        0       1.00000000      -0.00000216      -0.00000329      -0.00000424       0.00000071      -0.00000138       0.00000664
H        4.20923368       4.05033628       2.77137027        0       1.00000000      -0.00000359       0.00000261       0.00000005       0.00001350      -0.00000148      -0.00000674
H        5.60237665       1.61998445      11.81112462        0       1.00000000       0.00000095       0.00000257       0.00000407       0.00000325      -0.00000051       0.00000076
H        1.40307943       4.05033617       2.77136892        0       1.00000000       0.00000090      -0.00000091       0.00000074      -0.00000126      -0.00000540      -0.00000145
H        2.80615277       1.62013480       2.77136810        0       1.00000000      -0.00000233       0.00000349       0.00000316      -0.00000628       0.00000809      -0.00000016
H       -0.00000255       1.62013470       2.77136864        0       1.00000000      -0.00000370      -0.00000236       0.00000113       0.00000019       0.00000258       0.00000579
18
Lattice="5.612310241546866 0.0 0.0 0.0 4.860403243099165 0.0 0.0 0.0 14.582432123328676" Properties=species:S:1:pos:R:3:tags:I:1:masses:R:1:momenta:R:3:forces:R:3 KEmax=23.26679191048647 iter=169315 volume=397.78090899293073 ns_energy=-11.63803157486254 last_walked_iter_clone=169175 energy=-11.638031574930695 stress="0.022599222484640837 -7.479860468236713e-09 1.9809680967526468e-08 -7.479860468236713e-09 0.022713714069087898 4.770378871090172e-08 1.9809680967526468e-08 4.770378871090172e-08 0.012286212429708317" pbc="T T F"
H        1.40307756       0.81006721       5.00000000        3       1.00000000       0.00000000       0.00000000       0.00000000       0.00000000       0.00000000       0.00000000
H        4.20923268       0.81006721       5.00000000        3       1.00000000       0.00000000       0.00000000       0.00000000       0.00000000       0.00000000       0.00000000
H        0.00000000       3.24026883       5.00000000        3       1.00000000       0.00000000       0.00000000       0.00000000       0.00000000       0.00000000       0.00000000
H        2.80615512       3.24026883       5.00000000        3       1.00000000       0.00000000       0.00000000       0.00000000       0.00000000       0.00000000       0.00000000
H        0.00000000       1.62013441       7.29121606        2       1.00000000       0.00000000       0.00000000       0.00000000       0.00000000       0.00000000       0.00000000
H        2.80615512       1.62013441       7.29121606        2       1.00000000       0.00000000       0.00000000       0.00000000       0.00000000       0.00000000       0.00000000
H        1.40307756       4.05033604       7.29121606        2       1.00000000       0.00000000       0.00000000       0.00000000       0.00000000       0.00000000       0.00000000
H        4.20923268       4.05033604       7.29121606        2       1.00000000       0.00000000       0.00000000       0.00000000       0.00000000       0.00000000       0.00000000
H        0.00000000       0.00000000       9.58243212        1       1.00000000       0.00000000       0.00000000       0.00000000       0.00000000       0.00000000       0.00000000
H        2.80615512       0.00000000       9.58243212        1       1.00000000       0.00000000       0.00000000       0.00000000       0.00000000       0.00000000       0.00000000
H        1.40307756       2.43020162       9.58243212        1       1.00000000       0.00000000       0.00000000       0.00000000       0.00000000       0.00000000       0.00000000
H        4.20923268       2.43020162       9.58243212        1       1.00000000       0.00000000       0.00000000       0.00000000       0.00000000       0.00000000       0.00000000
H        1.41300864       4.05018816      11.81113281        0       1.00000000       0.00000180       0.00000531      -0.00000722       0.00000071      -0.00000138       0.00000664
H        4.20923041       4.05033373       2.77136500        0       1.00000000      -0.00000193      -0.00000020      -0.00000087       0.00001350      -0.00000148      -0.00000674
H        5.60237695       1.61998753      11.81113152        0       1.00000000      -0.00000293      -0.00000278       0.00000032       0.00000325      -0.00000051       0.00000076
H        1.40307860       4.05033354       2.77137137        0       1.00000000       0.00000418       0.00000076       0.00000382      -0.00000126      -0.00000540      -0.00000145
H        2.80615609       1.62013167       2.77136545        0       1.00000000      -0.00000168      -0.00000152       0.00000198      -0.00000628       0.00000809      -0.00000016
H        5.61231208       1.62013253       2.77136729        0       1.00000000       0.00000341       0.00000050      -0.00000070       0.00000019       0.00000258       0.00000579
18
Lattice="5.612310241546866 0.0 0.0 0.0 4.860403243099165 0.0 0.0 0.0 14.582432123328676" Properties=species:S:1:pos:R:3:tags:I:1:masses:R:1:momenta:R:3:forces:R:3 KEmax=23.26679191048647 iter=169315 volume=397.78090899293073 ns_energy=-11.638031574856646 last_walked_iter_clone=169061 energy=-11.638031574930695 stress="0.022599222484640837 -7.479860468236713e-09 1.9809680967526468e-08 -7.479860468236713e-09 0.022713714069087898 4.770378871090172e-08 1.9809680967526468e-08 4.770378871090172e-08 0.012286212429708317" pbc="T T F"
H        1.40307756       0.81006721       5.00000000        3       1.00000000       0.00000000       0.00000000       0.00000000       0.00000000       0.00000000       0.00000000
H        4.20923268       0.81006721       5.00000000        3       1.00000000       0.00000000       0.00000000       0.00000000       0.00000000       0.00000000       0.00000000
H        0.00000000       3.24026883       5.00000000        3       1.00000000       0.00000000       0.00000000       0.00000000       0.00000000       0.00000000       0.00000000
H        2.80615512       3.24026883       5.00000000        3       1.00000000       0.00000000       0.00000000       0.00000000       0.00000000       0.00000000       0.00000000
H        0.00000000       1.62013441       7.29121606        2       1.00000000       0.00000000       0.00000000       0.00000000       0.00000000       0.00000000       0.00000000
H        2.80615512       1.62013441       7.29121606        2       1.00000000       0.00000000       0.00000000       0.00000000       0.00000000       0.00000000       0.00000000
H        1.40307756       4.05033604       7.29121606        2       1.00000000       0.00000000       0.00000000       0.00000000       0.00000000       0.00000000       0.00000000
H        4.20923268       4.05033604       7.29121606        2       1.00000000       0.00000000       0.00000000       0.00000000       0.00000000       0.00000000       0.00000000
H        0.00000000       0.00000000       9.58243212        1       1.00000000       0.00000000       0.00000000       0.00000000       0.00000000       0.00000000       0.00000000
H        2.80615512       0.00000000       9.58243212        1       1.00000000       0.00000000       0.00000000       0.00000000       0.00000000       0.00000000       0.00000000
H        1.40307756       2.43020162       9.58243212        1       1.00000000       0.00000000       0.00000000       0.00000000       0.00000000       0.00000000       0.00000000
H        4.20923268       2.43020162       9.58243212        1       1.00000000       0.00000000       0.00000000       0.00000000       0.00000000       0.00000000       0.00000000
H        1.41300501       4.05019050      11.81113263        0       1.00000000      -0.00000093      -0.00000379       0.00000165       0.00000071      -0.00000138       0.00000664
H        4.20923423       4.05033381       2.77136818        0       1.00000000      -0.00000258      -0.00000415       0.00000069       0.00001350      -0.00000148      -0.00000674
H        5.60237702       1.61998765      11.81112840        0       1.00000000      -0.00000155       0.00000127       0.00000025       0.00000325      -0.00000051       0.00000076
H        1.40307742       4.05033577       2.77136787        0       1.00000000       0.00000051      -0.00000247      -0.00000358      -0.00000126      -0.00000540      -0.00000145
H        2.80615428       1.62013176       2.77136362        0       1.00000000       0.00000314       0.00000332       0.00000399      -0.00000628       0.00000809      -0.00000016
H       -0.00000150       1.62013624       2.77136818        0       1.00000000      -0.00000345       0.00000795      -0.00000214       0.00000019       0.00000258       0.00000579
18
Lattice="5.612310241546866 0.0 0.0 0.0 4.860403243099165 0.0 0.0 0.0 14.582432123328676" Properties=species:S:1:pos:R:3:tags:I:1:masses:R:1:momenta:R:3:forces:R:3 KEmax=23.26679191048647 iter=169315 volume=397.78090899293073 ns_energy=-11.63803157485667 last_walked_iter_clone=169262 energy=-11.638031574930695 stress="0.022599222484640837 -7.479860468236713e-09 1.9809680967526468e-08 -7.479860468236713e-09 0.022713714069087898 4.770378871090172e-08 1.9809680967526468e-08 4.770378871090172e-08 0.012286212429708317" pbc="T T F"
H        1.40307756       0.81006721       5.00000000        3       1.00000000       0.00000000       0.00000000       0.00000000       0.00000000       0.00000000       0.00000000
H        4.20923268       0.81006721       5.00000000        3       1.00000000       0.00000000       0.00000000       0.00000000       0.00000000       0.00000000       0.00000000
H        0.00000000       3.24026883       5.00000000        3       1.00000000       0.00000000       0.00000000       0.00000000       0.00000000       0.00000000       0.00000000
H        2.80615512       3.24026883       5.00000000        3       1.00000000       0.00000000       0.00000000       0.00000000       0.00000000       0.00000000       0.00000000
H        0.00000000       1.62013441       7.29121606        2       1.00000000       0.00000000       0.00000000       0.00000000       0.00000000       0.00000000       0.00000000
H        2.80615512       1.62013441       7.29121606        2       1.00000000       0.00000000       0.00000000       0.00000000       0.00000000       0.00000000       0.00000000
H        1.40307756       4.05033604       7.29121606        2       1.00000000       0.00000000       0.00000000       0.00000000       0.00000000       0.00000000       0.00000000
H        4.20923268       4.05033604       7.29121606        2       1.00000000       0.00000000       0.00000000       0.00000000       0.00000000       0.00000000       0.00000000
H        0.00000000       0.00000000       9.58243212        1       1.00000000       0.00000000       0.00000000       0.00000000       0.00000000       0.00000000       0.00000000
H        2.80615512       0.00000000       9.58243212        1       1.00000000       0.00000000       0.00000000       0.00000000       0.00000000       0.00000000       0.00000000
H        1.40307756       2.43020162       9.58243212        1       1.00000000       0.00000000       0.00000000       0.00000000       0.00000000       0.00000000       0.00000000
H        4.20923268       2.43020162       9.58243212        1       1.00000000       0.00000000       0.00000000       0.00000000       0.00000000       0.00000000       0.00000000
H        1.41300474       4.05018804      11.81113294        0       1.00000000      -0.00000251       0.00000093      -0.00000036       0.00000071      -0.00000138       0.00000664
H        4.20923158       4.05033603       2.77136873        0       1.00000000      -0.00000087       0.00000072       0.00000312       0.00001350      -0.00000148      -0.00000674
H        5.60237805       1.61998519      11.81113473        0       1.00000000       0.00000242      -0.00000130       0.00000030       0.00000325      -0.00000051       0.00000076
H        1.40307760       4.05033709       2.77136866        0       1.00000000      -0.00000704      -0.00000720       0.00000153      -0.00000126      -0.00000540      -0.00000145
H        2.80615411       1.62013546       2.77136786        0       1.00000000       0.00000103      -0.00000665      -0.00000055      -0.00000628       0.00000809      -0.00000016
H       -0.00000040       1.62013537       2.77136587        0       1.00000000       0.00000210       0.00000454       0.00000074       0.00000019       0.00000258       0.00000579
18
Lattice="5.612310241546866 0.0 0.0 0.0 4.860403243099165 0.0 0.0 0.0 14.582432123328676" Properties=species:S:1:pos:R:3:tags:I:1:masses:R:1:momenta:R:3:forces:R:3 KEmax=23.26679191048647 iter=169315 volume=397.78090899293073 ns_energy=-11.638031574857271 last_walked_iter_clone=169288 energy=-11.638031574930695 stress="0.022599222484640837 -7.479860468236713e-09 1.9809680967526468e-08 -7.479860468236713e-09 0.022713714069087898 4.770378871090172e-08 1.9809680967526468e-08 4.770378871090172e-08 0.012286212429708317" pbc="T T F"
H        1.40307756       0.81006721       5.00000000        3       1.00000000       0.00000000       0.00000000       0.00000000       0.00000000       0.00000000       0.00000000
H        4.20923268       0.81006721       5.00000000        3       1.00000000       0.00000000       0.00000000       0.00000000       0.00000000       0.00000000       0.00000000
H        0.00000000       3.24026883       5.00000000        3       1.00000000       0.00000000       0.00000000       0.00000000       0.00000000       0.00000000       0.00000000
H        2.80615512       3.24026883       5.00000000        3       1.00000000       0.00000000       0.00000000       0.00000000       0.00000000       0.00000000       0.00000000
H        0.00000000       1.62013441       7.29121606        2       1.00000000       0.00000000       0.00000000       0.00000000       0.00000000       0.00000000       0.00000000
H        2.80615512       1.62013441       7.29121606        2       1.00000000       0.00000000       0.00000000       0.00000000       0.00000000       0.00000000       0.00000000
H        1.40307756       4.05033604       7.29121606        2       1.00000000       0.00000000       0.00000000       0.00000000       0.00000000       0.00000000       0.00000000
H        4.20923268       4.05033604       7.29121606        2       1.00000000       0.00000000       0.00000000       0.00000000       0.00000000       0.00000000       0.00000000
H        0.00000000       0.00000000       9.58243212        1       1.00000000       0.00000000       0.00000000       0.00000000       0.00000000       0.00000000       0.00000000
H        2.80615512       0.00000000       9.58243212        1       1.00000000       0.00000000       0.00000000       0.00000000       0.00000000       0.00000000       0.00000000
H        1.40307756       2.43020162       9.58243212        1       1.00000000       0.00000000       0.00000000       0.00000000       0.00000000       0.00000000       0.00000000
H        4.20923268       2.43020162       9.58243212        1       1.00000000       0.00000000       0.00000000       0.00000000       0.00000000       0.00000000       0.00000000
H        1.41300758       4.05018545      11.81112804        0       1.00000000       0.00000278      -0.00000042      -0.00000207       0.00000071      -0.00000138       0.00000664
H        4.20923153       4.05033804       2.77136637        0       1.00000000      -0.00000009       0.00000453      -0.00000170       0.00001350      -0.00000148      -0.00000674
H        5.60237628       1.61998462      11.81113350        0       1.00000000       0.00000122      -0.00000357      -0.00000059       0.00000325      -0.00000051       0.00000076
H        1.40307690       4.05033806       2.77136742        0       1.00000000      -0.00000138       0.00000361      -0.00000526      -0.00000126      -0.00000540      -0.00000145
H        2.80615555       1.62013697       2.77136521        0       1.00000000      -0.00000636      -0.00000113      -0.00000241      -0.00000628       0.00000809      -0.00000016
H        0.00000154       1.62013881       2.77136702        0       1.00000000       0.00000237      -0.00000669      -0.00000048       0.00000019       0.00000258       0.00000579
18
Lattice="5.612310241546866 0.0 0.0 0.0 4.860403243099165 0.0 0.0 0.0 14.582432123328676" Properties=species:S:1:pos:R:3:tags:I:1:masses:R:1:momenta:R:3:forces:R:3 KEmax=23.26679191048647 iter=169315 volume=397.78090899293073 ns_energy=-11.638031574857298 last_walked_iter_clone=168558 energy=-11.638031574930695 stress="0.022599222484640837 -7.479860468236713e-09 1.9809680967526468e-08 -7.479860468236713e-09 0.022713714069087898 4.770378871090172e-08 1.9809680967526468e-08 4.770378871090172e-08 0.012286212429708317" pbc="T T F"
H        1.40307756       0.81006721       5.00000000        3       1.00000000       0.00000000       0.00000000       0.00000000       0.00000000       0.00000000       0.00000000
H        4.20923268       0.81006721       5.00000000        3       1.00000000       0.00000000       0.00000000       0.00000000       0.00000000       0.00000000       0.00000000
H        0.00000000       3.24026883       5.00000000        3       1.00000000       0.00000000       0.00000000       0.00000000       0.00000000       0.00000000       0.00000000
H        2.80615512       3.24026883       5.00000000        3       1.00000000       0.00000000       0.00000000       0.00000000       0.00000000       0.00000000       0.00000000
H        0.00000000       1.62013441       7.29121606        2       1.00000000       0.00000000       0.00000000       0.00000000       0.00000000       0.00000000       0.00000000
H        2.80615512       1.62013441       7.29121606        2       1.00000000       0.00000000       0.00000000       0.00000000       0.00000000       0.00000000       0.00000000
H        1.40307756       4.05033604       7.29121606        2       1.00000000       0.00000000       0.00000000       0.00000000       0.00000000       0.00000000       0.00000000
H        4.20923268       4.05033604       7.29121606        2       1.00000000       0.00000000       0.00000000       0.00000000       0.00000000       0.00000000       0.00000000
H        0.00000000       0.00000000       9.58243212        1       1.00000000       0.00000000       0.00000000       0.00000000       0.00000000       0.00000000       0.00000000
H        2.80615512       0.00000000       9.58243212        1       1.00000000       0.00000000       0.00000000       0.00000000       0.00000000       0.00000000       0.00000000
H        1.40307756       2.43020162       9.58243212        1       1.00000000       0.00000000       0.00000000       0.00000000       0.00000000       0.00000000       0.00000000
H        4.20923268       2.43020162       9.58243212        1       1.00000000       0.00000000       0.00000000       0.00000000       0.00000000       0.00000000       0.00000000
H        1.41300545       4.05019089      11.81112901        0       1.00000000      -0.00000329       0.00000246       0.00000247       0.00000071      -0.00000138       0.00000664
H        4.20923464       4.05033712       2.77136552        0       1.00000000       0.00000112      -0.00000166      -0.00000009       0.00001350      -0.00000148      -0.00000674
H        5.60237981       1.61998944      11.81112952        0       1.00000000       0.00000063      -0.00000318       0.00000355       0.00000325      -0.00000051       0.00000076