18
Lattice="5.612310241546866 0.0 0.0 0.0 4.860403243099165 0.0 0.0 0.0 14.582432123328676" Properties=species:S:1:pos:R:3:tags:I:1:masses:R:1:momenta:R:3:forces:R:3 KEmax=23.26679191048647 iter=89760 volume=397.78090899293073 ns_energy=-11.638015554975553 last_walked_iter_clone=89398 energy=-11.638021925085772 stress="0.022626832532059445 -9.232184508546475e-06 2.472496278191593e-05 -9.232184508546475e-06 0.022726067052617028 -2.4820490636769988e-05 2.472496278191593e-05 -2.4820490636769988e-05 0.012322653962821282" pbc="T T F"
H        1.40307756       0.81006721       5.00000000        3       1.00000000       0.00000000       0.00000000       0.00000000       0.00000000       0.00000000       0.00000000
H        4.20923268       0.81006721       5.00000000        3       1.00000000       0.00000000       0.00000000       0.00000000       0.00000000       0.00000000       0.00000000
H        0.00000000       3.24026883       5.00000000        3       1.00000000       0.00000000       0.00000000       0.00000000       0.00000000       0.00000000       0.00000000
H        2.80615512       3.24026883       5.00000000        3       1.00000000       0.00000000       0.00000000       0.00000000       0.00000000       0.00000000       0.00000000
H        0.00000000       1.62013441       7.29121606        2       1.00000000       0.00000000       0.00000000       0.00000000       0.00000000       0.00000000       0.00000000
H        2.80615512       1.62013441       7.29121606        2       1.00000000       0.00000000       0.00000000       0.00000000       0.00000000       0.00000000       0.00000000
H        1.40307756       4.05033604       7.29121606        2       1.00000000       0.00000000       0.00000000       0.00000000       0.00000000       0.00000000       0.00000000
H        4.20923268       4.05033604       7.29121606        2       1.00000000       0.00000000       0.00000000       0.00000000       0.00000000       0.00000000       0.00000000
H        0.00000000       0.00000000       9.58243212        1       1.00000000       0.00000000       0.00000000       0.00000000       0.00000000       0.00000000       0.00000000
H        2.80615512       0.00000000       9.58243212        1       1.00000000       0.00000000       0.00000000       0.00000000       0.00000000       0.00000000       0.00000000
H        1.40307756       2.43020162       9.58243212        1       1.00000000       0.00000000       0.00000000       0.00000000       0.00000000       0.00000000       0.00000000
H        4.20923268       2.43020162       9.58243212        1       1.00000000       0.00000000       0.00000000       0.00000000       0.00000000       0.00000000       0.00000000
H        1.41148227       4.04968813      11.81090617        0       1.00000000      -0.00101737      -0.00019357       0.00240969      -0.00202488       0.00011962      -0.00099454
H        4.20823797       4.04935922       2.77186707        0       1.00000000       0.00105119      -0.00087403       0.00050119       0.00180563       0.00195050       0.00012115
H        5.60192126       1.61978241      11.81159235        0       1.00000000      -0.00019545       0.00039827      -0.00017424       0.00094968       0.00145529      -0.00074501
H        1.40236870       4.05033735       2.77030314        0       1.00000000      -0.00191350       0.00140467       0.00145170      -0.00007636       0.00380463       0.00095668
H        2.80530419       1.61933020       2.77181007        0       1.00000000       0.00058235       0.00070499       0.00123374      -0.00013197      -0.00418961      -0.00058107
H        5.61111305       1.61991354       2.77100646        0       1.00000000       0.00012394       0.00053413      -0.00000604       0.00005665      -0.00272960       0.00185016
18
Lattice="5.612310241546866 0.0 0.0 0.0 4.860403243099165 0.0 0.0 0.0 14.582432123328676" Properties=species:S:1:pos:R:3:tags:I:1:masses:R:1:momenta:R:3:forces:R:3 KEmax=23.26679191048647 iter=89760 volume=397.78090899293073 ns_energy=-11.638015725807177 last_walked_iter_clone=89760 energy=-11.638021925085772 stress="0.022626832532059445 -9.232184508546475e-06 2.472496278191593e-05 -9.232184508546475e-06 0.022726067052617028 -2.4820490636769988e-05 2.472496278191593e-05 -2.4820490636769988e-05 0.012322653962821282" pbc="T T F"
H        1.40307756       0.81006721       5.00000000        3       1.00000000       0.00000000       0.00000000       0.00000000       0.00000000       0.00000000       0.00000000
H        4.20923268       0.81006721       5.00000000        3       1.00000000       0.00000000       0.00000000       0.00000000       0.00000000       0.00000000       0.00000000
H        0.00000000       3.24026883       5.00000000        3       1.00000000       0.00000000       0.00000000       0.00000000       0.00000000       0.00000000       0.00000000
H        2.80615512       3.24026883       5.00000000        3       1.00000000       0.00000000       0.00000000       0.00000000       0.00000000       0.00000000       0.00000000
H        0.00000000       1.62013441       7.29121606        2       1.00000000       0.00000000       0.00000000       0.00000000       0.00000000       0.00000000       0.00000000
H        2.80615512       1.62013441       7.29121606        2       1.00000000       0.00000000       0.00000000       0.00000000       0.00000000       0.00000000       0.00000000
H        1.40307756       4.05033604       7.29121606        2       1.00000000       0.00000000       0.00000000       0.00000000       0.00000000       0.00000000       0.00000000
H        4.20923268       4.05033604       7.29121606        2       1.00000000       0.00000000       0.00000000       0.00000000       0.00000000       0.00000000       0.00000000
H        0.00000000       0.00000000       9.58243212        1       1.00000000       0.00000000       0.00000000       0.00000000       0.00000000       0.00000000       0.00000000
H        2.80615512       0.00000000       9.58243212        1       1.00000000       0.00000000       0.00000000       0.00000000       0.00000000       0.00000000       0.00000000
H        1.40307756       2.43020162       9.58243212        1       1.00000000       0.00000000       0.00000000       0.00000000       0.00000000       0.00000000       0.00000000
H        4.20923268       2.43020162       9.58243212        1       1.00000000       0.00000000       0.00000000       0.00000000       0.00000000       0.00000000       0.00000000
H        1.41504036       4.04898636      11.81156102        0       1.00000000      -0.00052770       0.00102025       0.00061612      -0.00202488       0.00011962      -0.00099454
H        4.20812849       4.05060468       2.77131651        0       1.00000000      -0.00006848      -0.00023542       0.00086581       0.00180563       0.00195050       0.00012115
H        5.60223882       1.61836139      11.81143473        0       1.00000000      -0.00060566      -0.00001547       0.00042319       0.00094968       0.00145529      -0.00074501
H        1.40234128       4.05003876       2.77098214        0       1.00000000       0.00056258      -0.00122834       0.00110809      -0.00007636       0.00380463       0.00095668
H        2.80564213       1.62139062       2.77159726        0       1.00000000      -0.00105797      -0.00030092       0.00029260      -0.00013197      -0.00418961      -0.00058107
H       -0.00055148       1.62094752       2.77062317        0       1.00000000      -0.00021358       0.00191816       0.00112698       0.00005665      -0.00272960       0.00185016
18
Lattice="5.612310241546866 0.0 0.0 0.0 4.860403243099165 0.0 0.0 0.0 14.582432123328676" Properties=species:S:1:pos:R:3:tags:I:1:masses:R:1:momenta:R:3:forces:R:3 KEmax=23.26679191048647 iter=89760 volume=397.78090899293073 ns_energy=-11.638015683375212 last_walked_iter_clone=89629 energy=-11.638021925085772 stress="0.022626832532059445 -9.232184508546475e-06 2.472496278191593e-05 -9.232184508546475e-06 0.022726067052617028 -2.4820490636769988e-05 2.472496278191593e-05 -2.4820490636769988e-05 0.012322653962821282" pbc="T T F"
H        1.40307756       0.81006721       5.00000000        3       1.00000000       0.00000000       0.00000000       0.00000000       0.00000000       0.00000000       0.00000000
H        4.20923268       0.81006721       5.00000000        3       1.00000000       0.00000000       0.00000000       0.00000000       0.00000000       0.00000000       0.00000000
H        0.00000000       3.24026883       5.00000000        3       1.00000000       0.00000000       0.00000000       0.00000000       0.00000000       0.00000000       0.00000000
H        2.80615512       3.24026883       5.00000000        3       1.00000000       0.00000000       0.00000000       0.00000000       0.00000000       0.00000000       0.00000000
H        0.00000000       1.62013441       7.29121606        2       1.00000000       0.00000000       0.00000000       0.00000000       0.00000000       0.00000000       0.00000000
H        2.80615512       1.62013441       7.29121606        2       1.00000000       0.00000000       0.00000000       0.00000000       0.00000000       0.00000000       0.00000000
H        1.40307756       4.05033604       7.29121606        2       1.00000000       0.00000000       0.00000000       0.00000000       0.00000000       0.00000000       0.00000000
H        4.20923268       4.05033604       7.29121606        2       1.00000000       0.00000000       0.00000000       0.00000000       0.00000000       0.00000000       0.00000000
H        0.00000000       0.00000000       9.58243212        1       1.00000000       0.00000000       0.00000000       0.00000000       0.00000000       0.00000000       0.00000000
H        2.80615512       0.00000000       9.58243212        1       1.00000000       0.00000000       0.00000000       0.00000000       0.00000000       0.00000000       0.00000000
H        1.40307756       2.43020162       9.58243212        1       1.00000000       0.00000000       0.00000000       0.00000000       0.00000000       0.00000000       0.00000000
H        4.20923268       2.43020162       9.58243212        1       1.00000000       0.00000000       0.00000000       0.00000000       0.00000000       0.00000000       0.00000000
H        1.41325423       4.04909420      11.81022763        0       1.00000000       0.00101737      -0.00064086      -0.00158863      -0.00202488       0.00011962      -0.00099454
H        4.20861910       4.05012563       2.77072933        0       1.00000000       0.00049785      -0.00070662      -0.00087885       0.00180563       0.00195050       0.00012115
H        5.60231919       1.61868001      11.81071993        0       1.00000000       0.00039119       0.00029012       0.00000496       0.00094968       0.00145529      -0.00074501
H        1.40187665       4.05007647       2.77127160        0       1.00000000      -0.00074695       0.00012132      -0.00041990      -0.00007636       0.00380463       0.00095668
H        2.80477305       1.61980639       2.77168273        0       1.00000000       0.00222989      -0.00244174      -0.00026623      -0.00013197      -0.00418961      -0.00058107
H       -0.00147179       1.61976526       2.77163438        0       1.00000000      -0.00122739      -0.00139873       0.00043933       0.00005665      -0.00272960       0.00185016
18
Lattice="5.612310241546866 0.0 0.0 0.0 4.860403243099165 0.0 0.0 0.0 14.582432123328676" Properties=species:S:1:pos:R:3:tags:I:1:masses:R:1:momenta:R:3:forces:R:3 KEmax=23.26679191048647 iter=89760 volume=397.78090899293073 ns_energy=-11.63801577738391 last_walked_iter_clone=89747 energy=-11.638021925085772 stress="0.022626832532059445 -9.232184508546475e-06 2.472496278191593e-05 -9.232184508546475e-06 0.022726067052617028 -2.4820490636769988e-05 2.472496278191593e-05 -2.4820490636769988e-05 0.012322653962821282" pbc="T T F"
H        1.40307756       0.81006721       5.00000000        3       1.00000000       0.00000000       0.00000000       0.00000000       0.00000000       0.00000000       0.00000000
H        4.20923268       0.81006721       5.00000000        3       1.00000000       0.00000000       0.00000000       0.00000000       0.00000000       0.00000000       0.00000000
H        0.00000000       3.24026883       5.00000000        3       1.00000000       0.00000000       0.00000000       0.00000000       0.00000000       0.00000000       0.00000000
H        2.80615512       3.24026883       5.00000000        3       1.00000000       0.00000000       0.00000000       0.00000000       0.00000000       0.00000000       0.00000000
H        0.00000000       1.62013441       7.29121606        2       1.00000000       0.00000000       0.00000000       0.00000000       0.00000000       0.00000000       0.00000000
H        2.80615512       1.62013441       7.29121606        2       1.00000000       0.00000000       0.00000000       0.00000000       0.00000000       0.00000000       0.00000000
H        1.40307756       4.05033604       7.29121606        2       1.00000000       0.00000000       0.00000000       0.00000000       0.00000000       0.00000000       0.00000000
H        4.20923268       4.05033604       7.29121606        2       1.00000000       0.00000000       0.00000000       0.00000000       0.00000000       0.00000000       0.00000000
H        0.00000000       0.00000000       9.58243212        1       1.00000000       0.00000000       0.00000000       0.00000000       0.00000000       0.00000000       0.00000000
H        2.80615512       0.00000000       9.58243212        1       1.00000000       0.00000000       0.00000000       0.00000000       0.00000000       0.00000000       0.00000000
H        1.40307756       2.43020162       9.58243212        1       1.00000000       0.00000000       0.00000000       0.00000000       0.00000000       0.00000000       0.00000000
H        4.20923268       2.43020162       9.58243212        1       1.00000000       0.00000000       0.00000000       0.00000000       0.00000000       0.00000000       0.00000000
H        1.41363174       4.04877031      11.81113634        0       1.00000000       0.00073866       0.00097083      -0.00062687      -0.00202488       0.00011962      -0.00099454
H        4.20801246       4.05071929       2.77076980        0       1.00000000      -0.00016845       0.00048741       0.00059349       0.00180563       0.00195050       0.00012115
H        5.60078278       1.61945945      11.81080747        0       1.00000000      -0.00134038       0.00117423       0.00090431       0.00094968       0.00145529      -0.00074501
H        1.40236099       4.05025760       2.77120249        0       1.00000000       0.00066459       0.00116083      -0.00047213      -0.00007636       0.00380463       0.00095668
H        2.80646009       1.62127813       2.77196118        0       1.00000000      -0.00118839       0.00019266      -0.00131028      -0.00013197      -0.00418961      -0.00058107
H       -0.00100116       1.62054321       2.77169940        0       1.00000000       0.00003047       0.00027466      -0.00070621       0.00005665      -0.00272960       0.00185016
18
Lattice="5.612310241546866 0.0 0.0 0.0 4.860403243099165 0.0 0.0 0.0 14.582432123328676" Properties=species:S:1:pos:R:3:tags:I:1:masses:R:1:momenta:R:3:forces:R:3 KEmax=23.26679191048647 iter=89760 volume=397.78090899293073 ns_energy=-11.638015783415636 last_walked_iter_clone=89630 energy=-11.638021925085772 stress="0.022626832532059445 -9.232184508546475e-06 2.472496278191593e-05 -9.232184508546475e-06 0.022726067052617028 -2.4820490636769988e-05 2.472496278191593e-05 -2.4820490636769988e-05 0.012322653962821282" pbc="T T F"
H        1.40307756       0.81006721       5.00000000        3       1.00000000       0.00000000       0.00000000       0.00000000       0.00000000       0.00000000       0.00000000
H        4.20923268       0.81006721       5.00000000        3       1.00000000       0.00000000       0.00000000       0.00000000       0.00000000       0.00000000       0.00000000
H        0.00000000       3.24026883       5.00000000        3       1.00000000       0.00000000       0.00000000       0.00000000       0.00000000       0.00000000       0.00000000
H        2.80615512       3.24026883       5.00000000        3       1.00000000       0.00000000       0.00000000       0.00000000       0.00000000       0.00000000       0.00000000
H        0.00000000       1.62013441       7.29121606        2       1.00000000       0.00000000       0.00000000       0.00000000       0.00000000       0.00000000       0.00000000
H        2.80615512       1.62013441       7.29121606        2       1.00000000       0.00000000       0.00000000       0.00000000       0.00000000       0.00000000       0.00000000
H        1.40307756       4.05033604       7.29121606        2       1.00000000       0.00000000       0.00000000       0.00000000       0.00000000       0.00000000       0.00000000
H        4.20923268       4.05033604       7.29121606        2       1.00000000       0.00000000       0.00000000       0.00000000       0.00000000       0.00000000       0.00000000
H        0.00000000       0.00000000       9.58243212        1       1.00000000       0.00000000       0.00000000       0.00000000       0.00000000       0.00000000       0.00000000
H        2.80615512       0.00000000       9.58243212        1       1.00000000       0.00000000       0.00000000       0.00000000       0.00000000       0.00000000       0.00000000
H        1.40307756       2.43020162       9.58243212        1       1.00000000       0.00000000       0.00000000       0.00000000       0.00000000       0.00000000       0.00000000
H        4.20923268       2.43020162       9.58243212        1       1.00000000       0.00000000       0.00000000       0.00000000       0.00000000       0.00000000       0.00000000
H        1.41244094       4.04881273      11.80987300        0       1.00000000       0.00084519      -0.00004006       0.00062061      -0.00202488       0.00011962      -0.00099454
H        4.20916569       4.04918845       2.77113557        0       1.00000000       0.00095444      -0.00071438       0.00107794       0.00180563       0.00195050       0.00012115
H        5.60160743       1.61925508      11.81162872        0       1.00000000      -0.00162023       0.00097498      -0.00042980       0.00094968       0.00145529      -0.00074501
H        1.40395539       4.05019008       2.77084558        0       1.00000000       0.00097269      -0.00058601       0.00004526      -0.00007636       0.00380463       0.00095668
H        2.80654098       1.62007775       2.77023485        0       1.00000000      -0.00010750       0.00029310      -0.00037383      -0.00013197      -0.00418961      -0.00058107
H        0.00031742       1.61933072       2.77115368        0       1.00000000      -0.00174649      -0.00151211       0.00023488       0.00005665      -0.00272960       0.00185016
18
Lattice="5.612310241546866 0.0 0.0 0.0 4.860403243099165 0.0 0.0 0.0 14.582432123328676" Properties=species:S:1:pos:R:3:tags:I:1:masses:R:1:momenta:R:3:forces:R:3 KEmax=23.26679191048647 iter=89760 volume=397.78090899293073 ns_energy=-11.638015747421104 last_walked_iter_clone=89661 energy=-11.638021925085772 stress="0.022626832532059445 -9.232184508546475e-06 2.472496278191593e-05 -9.232184508546475e-06 0.022726067052617028 -2.4820490636769988e-05 2.472496278191593e-05 -2.4820490636769988e-05 0.012322653962821282" pbc="T T F"
H        1.40307756       0.81006721       5.00000000        3       1.00000000       0.00000000       0.00000000       0.00000000       0.00000000       0.00000000       0.00000000
H        4.20923268       0.81006721       5.00000000        3       1.00000000       0.00000000       0.00000000       0.00000000       0.00000000       0.00000000       0.00000000
H        0.00000000       3.24026883       5.00000000        3       1.00000000       0.00000000       0.00000000       0.00000000       0.00000000       0.00000000       0.00000000
H        2.80615512       3.24026883       5.00000000        3       1.00000000       0.00000000       0.00000000       0.00000000       0.00000000       0.00000000       0.00000000
H        0.00000000       1.62013441       7.29121606        2       1.00000000       0.00000000       0.00000000       0.00000000       0.00000000       0.00000000       0.00000000
H        2.80615512       1.62013441       7.29121606        2       1.00000000       0.00000000       0.00000000       0.00000000       0.00000000       0.00000000       0.00000000
H        1.40307756       4.05033604       7.29121606        2       1.00000000       0.00000000       0.00000000       0.00000000       0.00000000       0.00000000       0.00000000
H        4.20923268       4.05033604       7.29121606        2       1.00000000       0.00000000       0.00000000       0.00000000       0.00000000       0.00000000       0.00000000
H        0.00000000       0.00000000       9.58243212        1       1.00000000       0.00000000       0.00000000       0.00000000       0.00000000       0.00000000       0.00000000
H        2.80615512       0.00000000       9.58243212        1       1.00000000       0.00000000       0.00000000       0.00000000       0.00000000       0.00000000       0.00000000
H        1.40307756       2.43020162       9.58243212        1       1.00000000       0.00000000       0.00000000       0.00000000       0.00000000       0.00000000       0.00000000
H        4.20923268       2.43020162       9.58243212        1       1.00000000       0.00000000       0.00000000       0.00000000       0.00000000       0.00000000       0.00000000
H        1.41362714       4.04989696      11.81142898        0       1.00000000       0.00069726      -0.00029248      -0.00066853      -0.00202488       0.00011962      -0.00099454
H        4.20930416       4.04948264       2.77053880        0       1.00000000       0.00054802       0.00062490       0.00152219       0.00180563       0.00195050       0.00012115
H        5.60291746       1.62022422      11.81028896        0       1.00000000       0.00063767      -0.00095508      -0.00045641       0.00094968       0.00145529      -0.00074501
H        1.40320353       4.05114473       2.77204061        0       1.00000000       0.00045483       0.00053412      -0.00215213      -0.00007636       0.00380463       0.00095668
H        2.80658484       1.62003586       2.77217395        0       1.00000000      -0.00229984      -0.00037759      -0.00038196      -0.00013197      -0.00418961      -0.00058107
H        0.00019535       1.62022956       2.77114656        0       1.00000000       0.00137504      -0.00107323       0.00022262       0.00005665      -0.00272960       0.00185016
18
Lattice="5.612310241546866 0.0 0.0 0.0 4.860403243099165 0.0 0.0 0.0 14.582432123328676" Properties=species:S:1:pos:R:3:tags:I:1:masses:R:1:momenta:R:3:forces:R:3 KEmax=23.26679191048647 iter=89760 volume=397.78090899293073 ns_energy=-11.638015859084698 last_walked_iter_clone=89523 energy=-11.638021925085772 stress="0.022626832532059445 -9.232184508546475e-06 2.472496278191593e-05 -9.232184508546475e-06 0.022726067052617028 -2.4820490636769988e-05 2.472496278191593e-05 -2.4820490636769988e-05 0.012322653962821282" pbc="T T F"
H        1.40307756       0.81006721       5.00000000        3       1.00000000       0.00000000       0.00000000       0.00000000       0.00000000       0.00000000       0.00000000
H        4.20923268       0.81006721       5.00000000        3       1.00000000       0.00000000       0.00000000       0.00000000       0.00000000       0.00000000       0.00000000
H        0.00000000       3.24026883       5.00000000        3       1.00000000       0.00000000       0.00000000       0.00000000       0.00000000       0.00000000       0.00000000
H        2.80615512       3.24026883       5.00000000        3       1.00000000       0.00000000       0.00000000       0.00000000       0.00000000       0.00000000       0.00000000
H        0.00000000       1.62013441       7.29121606        2       1.00000000       0.00000000       0.00000000       0.00000000       0.00000000       0.00000000       0.00000000
H        2.80615512       1.62013441       7.29121606        2       1.00000000       0.00000000       0.00000000       0.00000000       0.00000000       0.00000000       0.00000000
H        1.40307756       4.05033604       7.29121606        2       1.00000000       0.00000000       0.00000000       0.00000000       0.00000000       0.00000000       0.00000000
H        4.20923268       4.05033604       7.29121606        2       1.00000000       0.00000000       0.00000000       0.00000000       0.00000000       0.00000000       0.00000000
H        0.00000000       0.00000000       9.58243212        1       1.00000000       0.00000000       0.00000000       0.00000000       0.00000000       0.00000000       0.00000000
H        2.80615512       0.00000000       9.58243212        1       1.00000000       0.00000000       0.00000000       0.00000000       0.00000000       0.00000000       0.00000000
H        1.40307756       2.43020162       9.58243212        1       1.00000000       0.00000000       0.00000000       0.00000000       0.00000000       0.00000000       0.00000000
H        4.20923268       2.43020162       9.58243212        1       1.00000000       0.00000000       0.00000000       0.00000000       0.00000000       0.00000000       0.00000000
H        2.79598984       1.62085908      11.81081053        0       1.00000000       0.00001223       0.00081987       0.00031267      -0.00202488       0.00011962      -0.00099454
H        1.40230720       4.05146238       2.77160940        0       1.00000000      -0.00047129      -0.00070877       0.00111566       0.00180563       0.00195050       0.00012115
H        4.21853631       4.05135179      11.81114395        0       1.00000000       0.00096809       0.00045295       0.00072407       0.00094968       0.00145529      -0.00074501
H        2.80529148       1.62091049       2.77140741        0       1.00000000      -0.00046076      -0.00095289      -0.00057547      -0.00007636       0.00380463       0.00095668
H       -0.00114317       1.61892289       2.77180837        0       1.00000000       0.00015613       0.00071425      -0.00066208      -0.00013197      -0.00418961      -0.00058107
H        4.20862388       4.05054443       2.77260467        0       1.00000000      -0.00065734       0.00062249       0.00161198       0.00005665      -0.00272960       0.00185016
18
Lattice="5.612310241546866 0.0 0.0 0.0 4.860403243099165 0.0 0.0 0.0 14.582432123328676" Properties=species:S:1:pos:R:3:tags:I:1:masses:R:1:momenta:R:3:forces:R:3 KEmax=23.26679191048647 iter=89760 volume=397.78090899293073 ns_energy=-11.638015944133192 last_walked_iter_clone=89507 energy=-11.638021925085772 stress="0.022626832532059445 -9.232184508546475e-06 2.472496278191593e-05 -9.232184508546475e-06 0.022726067052617028 -2.4820490636769988e-05 2.472496278191593e-05 -2.4820490636769988e-05 0.012322653962821282" pbc="T T F"
H        1.40307756       0.81006721       5.00000000        3       1.00000000       0.00000000       0.00000000       0.00000000       0.00000000       0.00000000       0.00000000
H        4.20923268       0.81006721       5.00000000        3       1.00000000       0.00000000       0.00000000       0.00000000       0.00000000       0.00000000       0.00000000
H        0.00000000       3.24026883       5.00000000        3       1.00000000       0.00000000       0.00000000       0.00000000       0.00000000       0.00000000       0.00000000
H        2.80615512       3.24026883       5.00000000        3       1.00000000       0.00000000       0.00000000       0.00000000       0.00000000       0.00000000       0.00000000
H        0.00000000       1.62013441       7.29121606        2       1.00000000       0.00000000       0.00000000       0.00000000       0.00000000       0.00000000       0.00000000
H        2.80615512       1.62013441       7.29121606        2       1.00000000       0.00000000       0.00000000       0.00000000       0.00000000       0.00000000       0.00000000
H        1.40307756       4.05033604       7.29121606        2       1.00000000       0.00000000       0.00000000       0.00000000       0.00000000       0.00000000       0.00000000
H        4.20923268       4.05033604       7.29121606        2       1.00000000       0.00000000       0.00000000       0.00000000       0.00000000       0.00000000       0.00000000
H        0.00000000       0.00000000       9.58243212        1       1.00000000       0.00000000       0.00000000       0.00000000       0.00000000       0.00000000       0.00000000
H        2.80615512       0.00000000       9.58243212        1       1.00000000       0.00000000       0.00000000       0.00000000       0.00000000       0.00000000       0.00000000
H        1.40307756       2.43020162       9.58243212        1       1.00000000       0.00000000       0.00000000       0.00000000       0.00000000       0.00000000       0.00000000
H        4.20923268       2.43020162       9.58243212        1       1.00000000       0.00000000       0.00000000       0.00000000       0.00000000       0.00000000       0.00000000
H        1.41264928       4.04870329      11.80996854        0       1.00000000      -0.00052982       0.00096688       0.00132174      -0.00202488       0.00011962      -0.00099454
H        4.21035540       4.05010972       2.77118843        0       1.00000000      -0.00011386       0.00088283      -0.00007182       0.00180563       0.00195050       0.00012115
H        5.60196124       1.61869745      11.81158880        0       1.00000000       0.00222086       0.00008460       0.00040447       0.00094968       0.00145529      -0.00074501