18
Lattice="5.612310241546866 0.0 0.0 0.0 4.860403243099165 0.0 0.0 0.0 24.582432123328676" Properties=species:S:1:pos:R:3:tags:I:1:masses:R:1:momenta:R:3 KEmax=23.26679191048647 iter=99 volume=670.5618179858607 ns_energy=134.63107953411222 last_walked_iter_clone=21 ns_P=0.0 config_n_global=99 ns_KE=21.330323994896958 pbc="T T F"
H        1.40307756       0.81006721      10.00000000        3       1.00000000       0.00000000       0.00000000       0.00000000
H        4.20923268       0.81006721      10.00000000        3       1.00000000       0.00000000       0.00000000       0.00000000
H        0.00000000       3.24026883      10.00000000        3       1.00000000       0.00000000       0.00000000       0.00000000
H        2.80615512       3.24026883      10.00000000        3       1.00000000       0.00000000       0.00000000       0.00000000
H        0.00000000       1.62013441      12.29121606        2       1.00000000       0.00000000       0.00000000       0.00000000
H        2.80615512       1.62013441      12.29121606        2       1.00000000       0.00000000       0.00000000       0.00000000
H        1.40307756       4.05033604      12.29121606        2       1.00000000       0.00000000       0.00000000       0.00000000
H        4.20923268       4.05033604      12.29121606        2       1.00000000       0.00000000       0.00000000       0.00000000
H        0.00000000       0.00000000      14.58243212        1       1.00000000       0.00000000       0.00000000       0.00000000
H        2.80615512       0.00000000      14.58243212        1       1.00000000       0.00000000       0.00000000       0.00000000
H        1.40307756       2.43020162      14.58243212        1       1.00000000       0.00000000       0.00000000       0.00000000
H        4.20923268       2.43020162      14.58243212        1       1.00000000       0.00000000       0.00000000       0.00000000
H        2.95349968       2.46197837       4.90819995        0       1.00000000       0.51907702       2.08815363       2.40321068
H        2.68781245       0.68031793       4.45689752        0       1.00000000       0.97668810      -2.18134797      -0.45353046
H        4.35464756       3.79280507      21.46625575        0       1.00000000      -0.12478551      -1.04161415      -2.43293548
H        2.90361307       3.82098027       4.08391704        0       1.00000000       1.65995772      -0.09306582      -2.75648211
H        2.52283752       3.84542919      20.54631996        0       1.00000000      -0.35999643       1.03108247       1.33613759
H        3.52261001       3.47036741       7.18668883        0       1.00000000       1.20980901       0.92905539      -1.91068483
18
Lattice="5.612310241546866 0.0 0.0 0.0 4.860403243099165 0.0 0.0 0.0 24.582432123328676" Properties=species:S:1:pos:R:3:tags:I:1:masses:R:1:momenta:R:3 KEmax=23.26679191048647 iter=199 volume=670.5618179858607 ns_energy=14.597428195472448 last_walked_iter_clone=177 ns_P=0.0 config_n_global=199 ns_KE=22.584102832752286 pbc="T T F"
H        1.40307756       0.81006721      10.00000000        3       1.00000000       0.00000000       0.00000000       0.00000000
H        4.20923268       0.81006721      10.00000000        3       1.00000000       0.00000000       0.00000000       0.00000000
H        0.00000000       3.24026883      10.00000000        3       1.00000000       0.00000000       0.00000000       0.00000000
H        2.80615512       3.24026883      10.00000000        3       1.00000000       0.00000000       0.00000000       0.00000000
H        0.00000000       1.62013441      12.29121606        2       1.00000000       0.00000000       0.00000000       0.00000000
H        2.80615512       1.62013441      12.29121606        2       1.00000000       0.00000000       0.00000000       0.00000000
H        1.40307756       4.05033604      12.29121606        2       1.00000000       0.00000000       0.00000000       0.00000000
H        4.20923268       4.05033604      12.29121606        2       1.00000000       0.00000000       0.00000000       0.00000000
H        0.00000000       0.00000000      14.58243212        1       1.00000000       0.00000000       0.00000000       0.00000000
H        2.80615512       0.00000000      14.58243212        1       1.00000000       0.00000000       0.00000000       0.00000000
H        1.40307756       2.43020162      14.58243212        1       1.00000000       0.00000000       0.00000000       0.00000000
H        4.20923268       2.43020162      14.58243212        1       1.00000000       0.00000000       0.00000000       0.00000000
H        2.12704915       0.96547305       6.91001021        0       1.00000000      -0.06105126      -1.39617639      -1.80478589
H        3.23647843       2.29010204       5.30921736        0       1.00000000      -1.95081567       1.16184508       2.11954999
H        1.02060105       3.30745575      19.92822763        0       1.00000000       1.34875361      -3.27032049       0.50395241
H        4.00457870       0.49656968       2.96502968        0       1.00000000      -0.24432912       1.64419012       1.21791433
H        4.53484114       1.67294306      19.48595731        0       1.00000000       0.64410272      -1.91336202       1.36572103
H        1.00648748       1.99756111       4.36033440        0       1.00000000       1.68373491       2.05255480      -0.55355703
18
Lattice="5.612310241546866 0.0 0.0 0.0 4.860403243099165 0.0 0.0 0.0 24.582432123328676" Properties=species:S:1:pos:R:3:tags:I:1:masses:R:1:momenta:R:3 KEmax=23.26679191048647 iter=299 volume=670.5618179858607 ns_energy=12.694711704260468 last_walked_iter_clone=80 ns_P=0.0 config_n_global=299 ns_KE=21.291283269714807 pbc="T T F"
H        1.40307756       0.81006721      10.00000000        3       1.00000000       0.00000000       0.00000000       0.00000000
H        4.20923268       0.81006721      10.00000000        3       1.00000000       0.00000000       0.00000000       0.00000000
H        0.00000000       3.24026883      10.00000000        3       1.00000000       0.00000000       0.00000000       0.00000000
H        2.80615512       3.24026883      10.00000000        3       1.00000000       0.00000000       0.00000000       0.00000000
H        0.00000000       1.62013441      12.29121606        2       1.00000000       0.00000000       0.00000000       0.00000000
H        2.80615512       1.62013441      12.29121606        2       1.00000000       0.00000000       0.00000000       0.00000000
H        1.40307756       4.05033604      12.29121606        2       1.00000000       0.00000000       0.00000000       0.00000000
H        4.20923268       4.05033604      12.29121606        2       1.00000000       0.00000000       0.00000000       0.00000000
H        0.00000000       0.00000000      14.58243212        1       1.00000000       0.00000000       0.00000000       0.00000000
H        2.80615512       0.00000000      14.58243212        1       1.00000000       0.00000000       0.00000000       0.00000000
H        1.40307756       2.43020162      14.58243212        1       1.00000000       0.00000000       0.00000000       0.00000000
H        4.20923268       2.43020162      14.58243212        1       1.00000000       0.00000000       0.00000000       0.00000000
H        1.93304492       2.66239508       6.18023744        0       1.00000000       1.50597482       1.19333716       2.15524226
H        4.77843098       2.95281780       3.48145430        0       1.00000000       0.47295361      -2.17751467       4.32547516
H        4.25801110       1.02999229      18.18447099        0       1.00000000       0.90906960      -0.04748583       0.08489300
H        1.27727609       2.84419479       2.30250610        0       1.00000000      -0.18755348      -1.27509218      -0.17264306
H        2.31012141       3.06204197      16.88416210        0       1.00000000      -2.09200289       0.78798847       1.47361814
H        2.24432420       0.17996556       4.18621547        0       1.00000000       0.86003158       0.36270444       0.06017075
18
Lattice="5.612310241546866 0.0 0.0 0.0 4.860403243099165 0.0 0.0 0.0 24.582432123328676" Properties=species:S:1:pos:R:3:tags:I:1:masses:R:1:momenta:R:3 KEmax=23.26679191048647 iter=399 volume=670.5618179858607 ns_energy=11.040055869561222 last_walked_iter_clone=296 ns_P=0.0 config_n_global=399 ns_KE=17.91425959182075 pbc="T T F"
H        1.40307756       0.81006721      10.00000000        3       1.00000000       0.00000000       0.00000000       0.00000000
H        4.20923268       0.81006721      10.00000000        3       1.00000000       0.00000000       0.00000000       0.00000000
H        0.00000000       3.24026883      10.00000000        3       1.00000000       0.00000000       0.00000000       0.00000000
H        2.80615512       3.24026883      10.00000000        3       1.00000000       0.00000000       0.00000000       0.00000000
H        0.00000000       1.62013441      12.29121606        2       1.00000000       0.00000000       0.00000000       0.00000000
H        2.80615512       1.62013441      12.29121606        2       1.00000000       0.00000000       0.00000000       0.00000000
H        1.40307756       4.05033604      12.29121606        2       1.00000000       0.00000000       0.00000000       0.00000000
H        4.20923268       4.05033604      12.29121606        2       1.00000000       0.00000000       0.00000000       0.00000000
H        0.00000000       0.00000000      14.58243212        1       1.00000000       0.00000000       0.00000000       0.00000000
H        2.80615512       0.00000000      14.58243212        1       1.00000000       0.00000000       0.00000000       0.00000000
H        1.40307756       2.43020162      14.58243212        1       1.00000000       0.00000000       0.00000000       0.00000000
H        4.20923268       2.43020162      14.58243212        1       1.00000000       0.00000000       0.00000000       0.00000000
H        0.73121170       3.39986122       4.77977070        0       1.00000000      -0.48842391      -2.96798911      -0.08193548
H        0.81081457       0.45296198       0.95019412        0       1.00000000      -0.01982101      -0.70335873       2.27884368
H        1.03822594       4.33361754      17.64670977        0       1.00000000       0.18419414       0.38109569       1.10542171
H        3.86820520       4.67345618       4.67000959        0       1.00000000      -0.95852344       0.68766313       1.10484515
H        1.14683599       1.68753433      21.01501813        0       1.00000000       0.95629747      -0.96381104      -0.32473325
H        4.78035654      -0.05896601       2.27687204        0       1.00000000      -0.03832579      -2.27268630      -3.15549431
18
Lattice="5.612310241546866 0.0 0.0 0.0 4.860403243099165 0.0 0.0 0.0 24.582432123328676" Properties=species:S:1:pos:R:3:tags:I:1:masses:R:1:momenta:R:3 KEmax=23.26679191048647 iter=499 volume=670.5618179858607 ns_energy=9.529555296203736 last_walked_iter_clone=402 ns_P=0.0 config_n_global=499 ns_KE=17.48839752386795 pbc="T T F"
H        1.40307756       0.81006721      10.00000000        3       1.00000000       0.00000000       0.00000000       0.00000000
H        4.20923268       0.81006721      10.00000000        3       1.00000000       0.00000000       0.00000000       0.00000000
H        0.00000000       3.24026883      10.00000000        3       1.00000000       0.00000000       0.00000000       0.00000000
H        2.80615512       3.24026883      10.00000000        3       1.00000000       0.00000000       0.00000000       0.00000000
H        0.00000000       1.62013441      12.29121606        2       1.00000000       0.00000000       0.00000000       0.00000000
H        2.80615512       1.62013441      12.29121606        2       1.00000000       0.00000000       0.00000000       0.00000000
H        1.40307756       4.05033604      12.29121606        2       1.00000000       0.00000000       0.00000000       0.00000000
H        4.20923268       4.05033604      12.29121606        2       1.00000000       0.00000000       0.00000000       0.00000000
H        0.00000000       0.00000000      14.58243212        1       1.00000000       0.00000000       0.00000000       0.00000000
H        2.80615512       0.00000000      14.58243212        1       1.00000000       0.00000000       0.00000000       0.00000000
H        1.40307756       2.43020162      14.58243212        1       1.00000000       0.00000000       0.00000000       0.00000000
H        4.20923268       2.43020162      14.58243212        1       1.00000000       0.00000000       0.00000000       0.00000000
H        4.23926525       3.83030713       8.18141490        0       1.00000000      -0.07318848       1.84763137      -2.26657213
H        2.35676223       1.91591222       7.00091369        0       1.00000000      -0.99854441       2.13886284      -1.07165975
H        2.31904172       1.36229149      22.34438116        0       1.00000000       0.08257186       0.70571296      -1.14548547
H        0.79310905       3.75837012       3.28057809        0       1.00000000       0.94408787       1.30699322       1.22423325
H        3.79151406       3.67475852      18.40830020        0       1.00000000      -0.78154433      -2.43669630       0.55821445
H        2.88155709       2.47609389       2.25005079        0       1.00000000       0.26022824      -2.61860692      -0.00877171
18
Lattice="5.612310241546866 0.0 0.0 0.0 4.860403243099165 0.0 0.0 0.0 24.582432123328676" Properties=species:S:1:pos:R:3:tags:I:1:masses:R:1:momenta:R:3 KEmax=23.26679191048647 iter=599 volume=670.5618179858607 ns_energy=8.260844120766297 last_walked_iter_clone=496 ns_P=0.0 config_n_global=599 ns_KE=16.08169684982677 pbc="T T F"
H        1.40307756       0.81006721      10.00000000        3       1.00000000       0.00000000       0.00000000       0.00000000
H        4.20923268       0.81006721      10.00000000        3       1.00000000       0.00000000       0.00000000       0.00000000
H        0.00000000       3.24026883      10.00000000        3       1.00000000       0.00000000       0.00000000       0.00000000
H        2.80615512       3.24026883      10.00000000        3       1.00000000       0.00000000       0.00000000       0.00000000
H        0.00000000       1.62013441      12.29121606        2       1.00000000       0.00000000       0.00000000       0.00000000
H        2.80615512       1.62013441      12.29121606        2       1.00000000       0.00000000       0.00000000       0.00000000
H        1.40307756       4.05033604      12.29121606        2       1.00000000       0.00000000       0.00000000       0.00000000
H        4.20923268       4.05033604      12.29121606        2       1.00000000       0.00000000       0.00000000       0.00000000
H        0.00000000       0.00000000      14.58243212        1       1.00000000       0.00000000       0.00000000       0.00000000
H        2.80615512       0.00000000      14.58243212        1       1.00000000       0.00000000       0.00000000       0.00000000
H        1.40307756       2.43020162      14.58243212        1       1.00000000       0.00000000       0.00000000       0.00000000
H        4.20923268       2.43020162      14.58243212        1       1.00000000       0.00000000       0.00000000       0.00000000
H        2.86687037       1.90755805       1.00990699        0       1.00000000      -0.68403243       1.03957213      -2.02242276
H        4.52128501       1.93143878       4.13363230        0       1.00000000      -0.99444309      -0.42521989       1.73815142
H        3.38468787       4.24271577      22.66544545        0       1.00000000      -0.29426564       1.35785212       2.04627602
H        0.96192083       4.10046904       6.17757006        0       1.00000000      -0.78165478       0.07790546      -0.36668426
H        3.67949470       0.28987051      19.96686153        0       1.00000000       0.50895086       0.15044279       1.52138002
H        0.57608986       1.63247481       6.01512151        0       1.00000000      -0.92747158      -3.30545281      -1.04023841
18
Lattice="5.612310241546866 0.0 0.0 0.0 4.860403243099165 0.0 0.0 0.0 24.582432123328676" Properties=species:S:1:pos:R:3:tags:I:1:masses:R:1:momenta:R:3 KEmax=23.26679191048647 iter=699 volume=670.5618179858607 ns_energy=6.8843518161170225 last_walked_iter_clone=528 ns_P=0.0 config_n_global=699 ns_KE=15.594339643729853 pbc="T T F"
H        1.40307756       0.81006721      10.00000000        3       1.00000000       0.00000000       0.00000000       0.00000000
H        4.20923268       0.81006721      10.00000000        3       1.00000000       0.00000000       0.00000000       0.00000000
H        0.00000000       3.24026883      10.00000000        3       1.00000000       0.00000000       0.00000000       0.00000000
H        2.80615512       3.24026883      10.00000000        3       1.00000000       0.00000000       0.00000000       0.00000000
H        0.00000000       1.62013441      12.29121606        2       1.00000000       0.00000000       0.00000000       0.00000000
H        2.80615512       1.62013441      12.29121606        2       1.00000000       0.00000000       0.00000000       0.00000000
H        1.40307756       4.05033604      12.29121606        2       1.00000000       0.00000000       0.00000000       0.00000000
H        4.20923268       4.05033604      12.29121606        2       1.00000000       0.00000000       0.00000000       0.00000000
H        0.00000000       0.00000000      14.58243212        1       1.00000000       0.00000000       0.00000000       0.00000000
H        2.80615512       0.00000000      14.58243212        1       1.00000000       0.00000000       0.00000000       0.00000000
H        1.40307756       2.43020162      14.58243212        1       1.00000000       0.00000000       0.00000000       0.00000000
H        4.20923268       2.43020162      14.58243212        1       1.00000000       0.00000000       0.00000000       0.00000000
H        4.35894694       2.62585659       7.57455225        0       1.00000000      -1.71850194       2.29559690       0.99819183
H        5.48065766       3.47084225       5.41310593        0       1.00000000       1.86798143       0.40118155      -0.59562049
H        0.84433075       2.63823332      18.71822048        0       1.00000000       1.07844179      -0.27862309       0.86430882
H        0.99446517       0.45609126       2.27765030        0       1.00000000       0.96410191      -2.63211194      -0.43187362
H        1.54569910       0.64710124      20.02254855        0       1.00000000      -1.29247336      -1.82550606      -0.92129987
H        2.15349959       4.03679341       7.30127364        0       1.00000000      -1.36657448       0.29359349      -0.35639768
18
Lattice="5.612310241546866 0.0 0.0 0.0 4.860403243099165 0.0 0.0 0.0 24.582432123328676" Properties=species:S:1:pos:R:3:tags:I:1:masses:R:1:momenta:R:3 KEmax=23.26679191048647 iter=799 volume=670.5618179858607 ns_energy=5.814253492757177 last_walked_iter_clone=765 ns_P=0.0 config_n_global=799 ns_KE=14.041668351408058 pbc="T T F"
H        1.40307756       0.81006721      10.00000000        3       1.00000000       0.00000000       0.00000000       0.00000000
H        4.20923268       0.81006721      10.00000000        3       1.00000000       0.00000000       0.00000000       0.00000000
H        0.00000000       3.24026883      10.00000000        3       1.00000000       0.00000000       0.00000000       0.00000000
H        2.80615512       3.24026883      10.00000000        3       1.00000000       0.00000000       0.00000000       0.00000000
H        0.00000000       1.62013441      12.29121606        2       1.00000000       0.00000000       0.00000000       0.00000000
H        2.80615512       1.62013441      12.29121606        2       1.00000000       0.00000000       0.00000000       0.00000000
H        1.40307756       4.05033604      12.29121606        2       1.00000000       0.00000000       0.00000000       0.00000000
H        4.20923268       4.05033604      12.29121606        2       1.00000000       0.00000000       0.00000000       0.00000000
H        0.00000000       0.00000000      14.58243212        1       1.00000000       0.00000000       0.00000000       0.00000000
H        2.80615512       0.00000000      14.58243212        1       1.00000000       0.00000000       0.00000000       0.00000000
H        1.40307756       2.43020162      14.58243212        1       1.00000000       0.00000000       0.00000000       0.00000000
H        4.20923268       2.43020162      14.58243212        1       1.00000000       0.00000000       0.00000000       0.00000000
H        4.42610808       2.41259299       2.70522950        0       1.00000000      -1.47321652      -1.67928725      -0.09387215
H        3.96674136       1.58309739       5.15661453        0       1.00000000       0.45482562       1.15393519       1.36744112
H        3.78429932       0.28820676      19.57166385        0       1.00000000       1.27782510       1.86659629       0.71719482
H        4.93055143       4.00938831       7.01559110        0       1.00000000       0.55851948      -0.98843426      -2.03648145
H        3.77612055       2.48954665      18.54453352        0       1.00000000      -0.52857995       2.55897369      -0.73753027
H        2.12834844       1.49314254       1.57380215        0       1.00000000      -0.11595530       0.33012929       1.05551365
18
Lattice="5.612310241546866 0.0 0.0 0.0 4.860403243099165 0.0 0.0 0.0 24.582432123328676" Properties=species:S:1:pos:R:3:tags:I:1:masses:R:1:momenta:R:3 KEmax=23.26679191048647 iter=899 volume=670.5618179858607 ns_energy=4.771276392657713 last_walked_iter_clone=836 ns_P=0.0 config_n_global=899 ns_KE=12.956932656251661 pbc="T T F"
H        1.40307756       0.81006721      10.00000000        3       1.00000000       0.00000000       0.00000000       0.00000000
H        4.20923268       0.81006721      10.00000000        3       1.00000000       0.00000000       0.00000000       0.00000000
H        0.00000000       3.24026883      10.00000000        3       1.00000000       0.00000000       0.00000000       0.00000000
H        2.80615512       3.24026883      10.00000000        3       1.00000000       0.00000000       0.00000000       0.00000000
H        0.00000000       1.62013441      12.29121606        2       1.00000000       0.00000000       0.00000000       0.00000000
H        2.80615512       1.62013441      12.29121606        2       1.00000000       0.00000000       0.00000000       0.00000000
H        1.40307756       4.05033604      12.29121606        2       1.00000000       0.00000000       0.00000000       0.00000000
H        4.20923268       4.05033604      12.29121606        2       1.00000000       0.00000000       0.00000000       0.00000000
H        0.00000000       0.00000000      14.58243212        1       1.00000000       0.00000000       0.00000000       0.00000000
H        2.80615512       0.00000000      14.58243212        1       1.00000000       0.00000000       0.00000000       0.00000000
H        1.40307756       2.43020162      14.58243212        1       1.00000000       0.00000000       0.00000000       0.00000000
H        4.20923268       2.43020162      14.58243212        1       1.00000000       0.00000000       0.00000000       0.00000000
H        2.91081089       2.04646066       1.58451945        0       1.00000000       1.69131312      -0.21784389      -0.32012666
H        2.34425659       1.01164487       6.93906246        0       1.00000000       0.02556136      -0.63988905      -0.19410259
H        3.75634928       3.18265557      16.83616296        0       1.00000000       1.74696277       1.31216581      -0.52803651
H        5.51312328       1.58748786       0.98654719        0       1.00000000       1.32956226      -0.54740519       0.00481434
H        3.44025354       1.24184601      20.67347720        0       1.00000000       0.35664006       0.88680638       1.25593203
H        2.04656686       0.32932688       3.08701127        0       1.00000000       2.59446828       1.09894621       2.21489900
18
Lattice="5.612310241546866 0.0 0.0 0.0 4.860403243099165 0.0 0.0 0.0 24.582432123328676" Properties=species:S:1:pos:R:3:tags:I:1:masses:R:1:momenta:R:3 KEmax=23.26679191048647 iter=999 volume=670.5618179858607 ns_energy=3.787645583537092 last_walked_iter_clone=975 ns_P=0.0 config_n_global=999 ns_KE=12.531354177389066 pbc="T T F"
H        1.40307756       0.81006721      10.00000000        3       1.00000000       0.00000000       0.00000000       0.00000000
H        4.20923268       0.81006721      10.00000000        3       1.00000000       0.00000000       0.00000000       0.00000000
H        0.00000000       3.24026883      10.00000000        3       1.00000000       0.00000000       0.00000000       0.00000000
H        2.80615512       3.24026883      10.00000000        3       1.00000000       0.00000000       0.00000000       0.00000000
H        0.00000000       1.62013441      12.29121606        2       1.00000000       0.00000000       0.00000000       0.00000000
H        2.80615512       1.62013441      12.29121606        2       1.00000000       0.00000000       0.00000000       0.00000000
H        1.40307756       4.05033604      12.29121606        2       1.00000000       0.00000000       0.00000000       0.00000000
H        4.20923268       4.05033604      12.29121606        2       1.00000000       0.00000000       0.00000000       0.00000000
H        0.00000000       0.00000000      14.58243212        1       1.00000000       0.00000000       0.00000000       0.00000000
H        2.80615512       0.00000000      14.58243212        1       1.00000000       0.00000000       0.00000000       0.00000000
H        1.40307756       2.43020162      14.58243212        1       1.00000000       0.00000000       0.00000000       0.00000000
H        4.20923268       2.43020162      14.58243212        1       1.00000000       0.00000000       0.00000000       0.00000000
H        4.06287876       1.37127589       5.92318022        0       1.00000000       0.76484963       0.62616473       0.87320018
H        0.91979858       3.80289986       5.74250893        0       1.00000000       0.22797179      -1.33439292      -0.64754407
H        3.13453173       1.69792247      20.37427197        0       1.00000000      -0.76579863      -0.08913850      -1.19824890
H        1.46865212       1.24984282       7.29085579        0       1.00000000      -3.64445497      -0.96660766      -0.27814109
H        4.09657606       4.22075609      17.28726533        0       1.00000000       0.83895704       0.03481175       0.02891129
H        5.20621192       4.37001104       1.57665113        0       1.00000000       0.53573154       1.43934506       1.29719159
18
Lattice="5.612310241546866 0.0 0.0 0.0 4.860403243099165 0.0 0.0 0.0 24.582432123328676" Properties=species:S:1:pos:R:3:tags:I:1:masses:R:1:momenta:R:3 KEmax=23.26679191048647 iter=1099 volume=670.5618179858607 ns_energy=2.928944876373378 last_walked_iter_clone=971 ns_P=0.0 config_n_global=1099 ns_KE=11.088025414774433 pbc="T T F"
H        1.40307756       0.81006721      10.00000000        3       1.00000000       0.00000000       0.00000000       0.00000000
H        4.20923268       0.81006721      10.00000000        3       1.00000000       0.00000000       0.00000000       0.00000000
H        0.00000000       3.24026883      10.00000000        3       1.00000000       0.00000000       0.00000000       0.00000000
H        2.80615512       3.24026883      10.00000000        3       1.00000000       0.00000000       0.00000000       0.00000000
H        0.00000000       1.62013441      12.29121606        2       1.00000000       0.00000000       0.00000000       0.00000000
H        2.80615512       1.62013441      12.29121606        2       1.00000000       0.00000000       0.00000000       0.00000000
H        1.40307756       4.05033604      12.29121606        2       1.00000000       0.00000000       0.00000000       0.00000000
H        4.20923268       4.05033604      12.29121606        2       1.00000000       0.00000000       0.00000000       0.00000000
H        0.00000000       0.00000000      14.58243212        1       1.00000000       0.00000000       0.00000000       0.00000000
H        2.80615512       0.00000000      14.58243212        1       1.00000000       0.00000000       0.00000000       0.00000000
H        1.40307756       2.43020162      14.58243212        1       1.00000000       0.00000000       0.00000000       0.00000000
H        4.20923268       2.43020162      14.58243212        1       1.00000000       0.00000000       0.00000000       0.00000000
H        3.45621422       0.30615046       2.35082497        0       1.00000000       0.52316603       0.03062624      -1.60376375
H        4.38919793       4.62939493       6.89459936        0       1.00000000       1.19104986       0.54099854       0.11031642
H        1.59774086       1.67800146      18.22557218        0       1.00000000       1.64385643      -0.27693676       1.89904947
H        2.66737315       2.65571940       0.73264216        0       1.00000000      -1.24024227      -1.51195441       1.01543961
H        1.94940881       4.67048287      21.59008532        0       1.00000000      -1.35001586      -0.10319790      -1.45531413
H        0.39302668       3.40495665       5.19176230        0       1.00000000       1.31961739       0.73345060       0.36709668
18
Lattice="5.612310241546866 0.0 0.0 0.0 4.860403243099165 0.0 0.0 0.0 24.582432123328676" Properties=species:S:1:pos:R:3:tags:I:1:masses:R:1:momenta:R:3 KEmax=23.26679191048647 iter=1199 volume=670.5618179858607 ns_energy=2.1761443916092786 ns_P=0.0 config_n_global=1199 ns_KE=3.688936411939553 pbc="T T F"