18
Lattice="5.612310241546866 0.0 0.0 0.0 4.860403243099165 0.0 0.0 0.0 24.582432123328676" Properties=species:S:1:pos:R:3:tags:I:1:masses:R:1:momenta:R:3:forces:R:3 KEmax=23.26679191048647 iter=89908 volume=670.5618179858607 ns_energy=-11.638031574949844 last_walked_iter_clone=89905 energy=-11.638031574967481 stress="0.022594282404586746 -4.067649360547118e-09 1.1832344690999126e-08 -4.067649360547118e-09 0.022708659298489364 -3.8898008986870084e-08 1.1832344690999126e-08 -3.8898008986870084e-08 0.012283561568281112" pbc="T T F"
H        1.40307756       0.81006721      10.00000000        3       1.00000000       0.00000000       0.00000000       0.00000000       0.00000000       0.00000000       0.00000000
H        4.20923268       0.81006721      10.00000000        3       1.00000000       0.00000000       0.00000000       0.00000000       0.00000000       0.00000000       0.00000000
H        0.00000000       3.24026883      10.00000000        3       1.00000000       0.00000000       0.00000000       0.00000000       0.00000000       0.00000000       0.00000000
H        2.80615512       3.24026883      10.00000000        3       1.00000000       0.00000000       0.00000000       0.00000000       0.00000000       0.00000000       0.00000000
H        0.00000000       1.62013441      12.29121606        2       1.00000000       0.00000000       0.00000000       0.00000000       0.00000000       0.00000000       0.00000000
H        2.80615512       1.62013441      12.29121606        2       1.00000000       0.00000000       0.00000000       0.00000000       0.00000000       0.00000000       0.00000000
H        1.40307756       4.05033604      12.29121606        2       1.00000000       0.00000000       0.00000000       0.00000000       0.00000000       0.00000000       0.00000000
H        4.20923268       4.05033604      12.29121606        2       1.00000000       0.00000000       0.00000000       0.00000000       0.00000000       0.00000000       0.00000000
H        0.00000000       0.00000000      14.58243212        1       1.00000000       0.00000000       0.00000000       0.00000000       0.00000000       0.00000000       0.00000000
H        2.80615512       0.00000000      14.58243212        1       1.00000000       0.00000000       0.00000000       0.00000000       0.00000000       0.00000000       0.00000000
H        1.40307756       2.43020162      14.58243212        1       1.00000000       0.00000000       0.00000000       0.00000000       0.00000000       0.00000000       0.00000000
H        4.20923268       2.43020162      14.58243212        1       1.00000000       0.00000000       0.00000000       0.00000000       0.00000000       0.00000000       0.00000000
H        5.61230989       1.62013487       7.77136836        0       1.00000000       0.00000263       0.00000212      -0.00000373      -0.00000068      -0.00000512       0.00000019
H        1.40307642       4.05033672       7.77136500        0       1.00000000       0.00000145      -0.00000166       0.00000039      -0.00001087       0.00000115      -0.00000477
H        4.21915980       4.05019131      16.81113002        0       1.00000000       0.00000126       0.00000083       0.00000176      -0.00000076       0.00000074       0.00000566
H        4.20923182       4.05033394       7.77136683        0       1.00000000       0.00000053       0.00000083       0.00000151       0.00000589      -0.00000340       0.00000411
H        2.79622002       1.61998965      16.81113144        0       1.00000000       0.00000062      -0.00000001      -0.00000114       0.00000053       0.00000150      -0.00000435
H        2.80615542       1.62013572       7.77136791        0       1.00000000       0.00000441      -0.00000090       0.00000183       0.00000674       0.00000574      -0.00000078
18
Lattice="5.612310241546866 0.0 0.0 0.0 4.860403243099165 0.0 0.0 0.0 24.582432123328676" Properties=species:S:1:pos:R:3:tags:I:1:masses:R:1:momenta:R:3:forces:R:3 KEmax=23.26679191048647 iter=89908 volume=670.5618179858607 ns_energy=-11.63803157494931 last_walked_iter_clone=89803 energy=-11.638031574967481 stress="0.022594282404586746 -4.067649360547118e-09 1.1832344690999126e-08 -4.067649360547118e-09 0.022708659298489364 -3.8898008986870084e-08 1.1832344690999126e-08 -3.8898008986870084e-08 0.012283561568281112" pbc="T T F"
H        1.40307756       0.81006721      10.00000000        3       1.00000000       0.00000000       0.00000000       0.00000000       0.00000000       0.00000000       0.00000000
H        4.20923268       0.81006721      10.00000000        3       1.00000000       0.00000000       0.00000000       0.00000000       0.00000000       0.00000000       0.00000000
H        0.00000000       3.24026883      10.00000000        3       1.00000000       0.00000000       0.00000000       0.00000000       0.00000000       0.00000000       0.00000000
H        2.80615512       3.24026883      10.00000000        3       1.00000000       0.00000000       0.00000000       0.00000000       0.00000000       0.00000000       0.00000000
H        0.00000000       1.62013441      12.29121606        2       1.00000000       0.00000000       0.00000000       0.00000000       0.00000000       0.00000000       0.00000000
H        2.80615512       1.62013441      12.29121606        2       1.00000000       0.00000000       0.00000000       0.00000000       0.00000000       0.00000000       0.00000000
H        1.40307756       4.05033604      12.29121606        2       1.00000000       0.00000000       0.00000000       0.00000000       0.00000000       0.00000000       0.00000000
H        4.20923268       4.05033604      12.29121606        2       1.00000000       0.00000000       0.00000000       0.00000000       0.00000000       0.00000000       0.00000000
H        0.00000000       0.00000000      14.58243212        1       1.00000000       0.00000000       0.00000000       0.00000000       0.00000000       0.00000000       0.00000000
H        2.80615512       0.00000000      14.58243212        1       1.00000000       0.00000000       0.00000000       0.00000000       0.00000000       0.00000000       0.00000000
H        1.40307756       2.43020162      14.58243212        1       1.00000000       0.00000000       0.00000000       0.00000000       0.00000000       0.00000000       0.00000000
H        4.20923268       2.43020162      14.58243212        1       1.00000000       0.00000000       0.00000000       0.00000000       0.00000000       0.00000000       0.00000000
H       -0.00000038       1.62013455       7.77136742        0       1.00000000      -0.00000124       0.00000007      -0.00000326      -0.00000068      -0.00000512       0.00000019
H        1.40307871       4.05033635       7.77136670        0       1.00000000      -0.00000096       0.00000283      -0.00000027      -0.00001087       0.00000115      -0.00000477
H        4.21916851       4.05018347      16.81112866        0       1.00000000      -0.00000303      -0.00000040       0.00000244      -0.00000076       0.00000074       0.00000566
H        4.20923368       4.05033743       7.77136635        0       1.00000000       0.00000124      -0.00000031       0.00000062       0.00000589      -0.00000340       0.00000411
H        2.79622490       1.61998242      16.81112730        0       1.00000000       0.00000080      -0.00000059      -0.00000004       0.00000053       0.00000150      -0.00000435
H        2.80615408       1.62013459       7.77136783        0       1.00000000      -0.00000058       0.00000033      -0.00000076       0.00000674       0.00000574      -0.00000078
18
Lattice="5.612310241546866 0.0 0.0 0.0 4.860403243099165 0.0 0.0 0.0 24.582432123328676" Properties=species:S:1:pos:R:3:tags:I:1:masses:R:1:momenta:R:3:forces:R:3 KEmax=23.26679191048647 iter=89908 volume=670.5618179858607 ns_energy=-11.638031574949418 last_walked_iter_clone=89784 energy=-11.638031574967481 stress="0.022594282404586746 -4.067649360547118e-09 1.1832344690999126e-08 -4.067649360547118e-09 0.022708659298489364 -3.8898008986870084e-08 1.1832344690999126e-08 -3.8898008986870084e-08 0.012283561568281112" pbc="T T F"
H        1.40307756       0.81006721      10.00000000        3       1.00000000       0.00000000       0.00000000       0.00000000       0.00000000       0.00000000       0.00000000
H        4.20923268       0.81006721      10.00000000        3       1.00000000       0.00000000       0.00000000       0.00000000       0.00000000       0.00000000       0.00000000
H        0.00000000       3.24026883      10.00000000        3       1.00000000       0.00000000       0.00000000       0.00000000       0.00000000       0.00000000       0.00000000
H        2.80615512       3.24026883      10.00000000        3       1.00000000       0.00000000       0.00000000       0.00000000       0.00000000       0.00000000       0.00000000
H        0.00000000       1.62013441      12.29121606        2       1.00000000       0.00000000       0.00000000       0.00000000       0.00000000       0.00000000       0.00000000
H        2.80615512       1.62013441      12.29121606        2       1.00000000       0.00000000       0.00000000       0.00000000       0.00000000       0.00000000       0.00000000
H        1.40307756       4.05033604      12.29121606        2       1.00000000       0.00000000       0.00000000       0.00000000       0.00000000       0.00000000       0.00000000
H        4.20923268       4.05033604      12.29121606        2       1.00000000       0.00000000       0.00000000       0.00000000       0.00000000       0.00000000       0.00000000
H        0.00000000       0.00000000      14.58243212        1       1.00000000       0.00000000       0.00000000       0.00000000       0.00000000       0.00000000       0.00000000
H        2.80615512       0.00000000      14.58243212        1       1.00000000       0.00000000       0.00000000       0.00000000       0.00000000       0.00000000       0.00000000
H        1.40307756       2.43020162      14.58243212        1       1.00000000       0.00000000       0.00000000       0.00000000       0.00000000       0.00000000       0.00000000
H        4.20923268       2.43020162      14.58243212        1       1.00000000       0.00000000       0.00000000       0.00000000       0.00000000       0.00000000       0.00000000
H        5.61231044       1.62013257       7.77136938        0       1.00000000      -0.00000306       0.00000224       0.00000148      -0.00000068      -0.00000512       0.00000019
H        1.40307729       4.05033535       7.77136746        0       1.00000000       0.00000043       0.00000011      -0.00000261      -0.00001087       0.00000115      -0.00000477
H        4.21916376       4.05018959      16.81112952        0       1.00000000      -0.00000161       0.00000082      -0.00000102      -0.00000076       0.00000074       0.00000566
H        4.20923159       4.05033379       7.77136685        0       1.00000000       0.00000282       0.00000152      -0.00000230       0.00000589      -0.00000340       0.00000411
H        2.79622065       1.61999121      16.81113218        0       1.00000000       0.00000329       0.00000228      -0.00000167       0.00000053       0.00000150      -0.00000435
H        2.80615589       1.62013435       7.77136635        0       1.00000000       0.00000189       0.00000183       0.00000145       0.00000674       0.00000574      -0.00000078
18
Lattice="5.612310241546866 0.0 0.0 0.0 4.860403243099165 0.0 0.0 0.0 24.582432123328676" Properties=species:S:1:pos:R:3:tags:I:1:masses:R:1:momenta:R:3:forces:R:3 KEmax=23.26679191048647 iter=89908 volume=670.5618179858607 ns_energy=-11.638031574950865 last_walked_iter_clone=89835 energy=-11.638031574967481 stress="0.022594282404586746 -4.067649360547118e-09 1.1832344690999126e-08 -4.067649360547118e-09 0.022708659298489364 -3.8898008986870084e-08 1.1832344690999126e-08 -3.8898008986870084e-08 0.012283561568281112" pbc="T T F"
H        1.40307756       0.81006721      10.00000000        3       1.00000000       0.00000000       0.00000000       0.00000000       0.00000000       0.00000000       0.00000000
H        4.20923268       0.81006721      10.00000000        3       1.00000000       0.00000000       0.00000000       0.00000000       0.00000000       0.00000000       0.00000000
H        0.00000000       3.24026883      10.00000000        3       1.00000000       0.00000000       0.00000000       0.00000000       0.00000000       0.00000000       0.00000000
H        2.80615512       3.24026883      10.00000000        3       1.00000000       0.00000000       0.00000000       0.00000000       0.00000000       0.00000000       0.00000000
H        0.00000000       1.62013441      12.29121606        2       1.00000000       0.00000000       0.00000000       0.00000000       0.00000000       0.00000000       0.00000000
H        2.80615512       1.62013441      12.29121606        2       1.00000000       0.00000000       0.00000000       0.00000000       0.00000000       0.00000000       0.00000000
H        1.40307756       4.05033604      12.29121606        2       1.00000000       0.00000000       0.00000000       0.00000000       0.00000000       0.00000000       0.00000000
H        4.20923268       4.05033604      12.29121606        2       1.00000000       0.00000000       0.00000000       0.00000000       0.00000000       0.00000000       0.00000000
H        0.00000000       0.00000000      14.58243212        1       1.00000000       0.00000000       0.00000000       0.00000000       0.00000000       0.00000000       0.00000000
H        2.80615512       0.00000000      14.58243212        1       1.00000000       0.00000000       0.00000000       0.00000000       0.00000000       0.00000000       0.00000000
H        1.40307756       2.43020162      14.58243212        1       1.00000000       0.00000000       0.00000000       0.00000000       0.00000000       0.00000000       0.00000000
H        4.20923268       2.43020162      14.58243212        1       1.00000000       0.00000000       0.00000000       0.00000000       0.00000000       0.00000000       0.00000000
H       -0.00000234       1.62013418       7.77136772        0       1.00000000       0.00000171      -0.00000019      -0.00000026      -0.00000068      -0.00000512       0.00000019
H        1.40307715       4.05033780       7.77136823        0       1.00000000      -0.00000099      -0.00000035      -0.00000580      -0.00001087       0.00000115      -0.00000477
H        4.21916461       4.05018851      16.81113279        0       1.00000000      -0.00000105      -0.00000071       0.00000270      -0.00000076       0.00000074       0.00000566
H        4.20923145       4.05033600       7.77136825        0       1.00000000      -0.00000103       0.00000105       0.00000146       0.00000589      -0.00000340       0.00000411
H        2.79622394       1.61998644      16.81113003        0       1.00000000      -0.00000609      -0.00000054      -0.00000192       0.00000053       0.00000150      -0.00000435
H        2.80615305       1.62013585       7.77136676        0       1.00000000      -0.00000095       0.00000165       0.00000085       0.00000674       0.00000574      -0.00000078
18
Lattice="5.612310241546866 0.0 0.0 0.0 4.860403243099165 0.0 0.0 0.0 24.582432123328676" Properties=species:S:1:pos:R:3:tags:I:1:masses:R:1:momenta:R:3:forces:R:3 KEmax=23.26679191048647 iter=89908 volume=670.5618179858607 ns_energy=-11.638031574950269 last_walked_iter_clone=89669 energy=-11.638031574967481 stress="0.022594282404586746 -4.067649360547118e-09 1.1832344690999126e-08 -4.067649360547118e-09 0.022708659298489364 -3.8898008986870084e-08 1.1832344690999126e-08 -3.8898008986870084e-08 0.012283561568281112" pbc="T T F"
H        1.40307756       0.81006721      10.00000000        3       1.00000000       0.00000000       0.00000000       0.00000000       0.00000000       0.00000000       0.00000000
H        4.20923268       0.81006721      10.00000000        3       1.00000000       0.00000000       0.00000000       0.00000000       0.00000000       0.00000000       0.00000000
H        0.00000000       3.24026883      10.00000000        3       1.00000000       0.00000000       0.00000000       0.00000000       0.00000000       0.00000000       0.00000000
H        2.80615512       3.24026883      10.00000000        3       1.00000000       0.00000000       0.00000000       0.00000000       0.00000000       0.00000000       0.00000000
H        0.00000000       1.62013441      12.29121606        2       1.00000000       0.00000000       0.00000000       0.00000000       0.00000000       0.00000000       0.00000000
H        2.80615512       1.62013441      12.29121606        2       1.00000000       0.00000000       0.00000000       0.00000000       0.00000000       0.00000000       0.00000000
H        1.40307756       4.05033604      12.29121606        2       1.00000000       0.00000000       0.00000000       0.00000000       0.00000000       0.00000000       0.00000000
H        4.20923268       4.05033604      12.29121606        2       1.00000000       0.00000000       0.00000000       0.00000000       0.00000000       0.00000000       0.00000000
H        0.00000000       0.00000000      14.58243212        1       1.00000000       0.00000000       0.00000000       0.00000000       0.00000000       0.00000000       0.00000000
H        2.80615512       0.00000000      14.58243212        1       1.00000000       0.00000000       0.00000000       0.00000000       0.00000000       0.00000000       0.00000000
H        1.40307756       2.43020162      14.58243212        1       1.00000000       0.00000000       0.00000000       0.00000000       0.00000000       0.00000000       0.00000000
H        4.20923268       2.43020162      14.58243212        1       1.00000000       0.00000000       0.00000000       0.00000000       0.00000000       0.00000000       0.00000000
H       -0.00000140       1.62013340       7.77136675        0       1.00000000       0.00000047       0.00000129      -0.00000032      -0.00000068      -0.00000512       0.00000019
H        1.40307651       4.05033430       7.77136703        0       1.00000000       0.00000182       0.00000231      -0.00000131      -0.00001087       0.00000115      -0.00000477
H        4.21916519       4.05019133      16.81112986        0       1.00000000       0.00000186       0.00000151       0.00000208      -0.00000076       0.00000074       0.00000566
H        4.20923070       4.05033412       7.77136596        0       1.00000000      -0.00000153      -0.00000199       0.00000273       0.00000589      -0.00000340       0.00000411
H        2.79622472       1.61999103      16.81112977        0       1.00000000      -0.00000603       0.00000388       0.00000138       0.00000053       0.00000150      -0.00000435
H        2.80615213       1.62013269       7.77136612        0       1.00000000      -0.00000122      -0.00000222      -0.00000088       0.00000674       0.00000574      -0.00000078
18
Lattice="5.612310241546866 0.0 0.0 0.0 4.860403243099165 0.0 0.0 0.0 24.582432123328676" Properties=species:S:1:pos:R:3:tags:I:1:masses:R:1:momenta:R:3:forces:R:3 KEmax=23.26679191048647 iter=89908 volume=670.5618179858607 ns_energy=-11.638031574949517 last_walked_iter_clone=89842 energy=-11.638031574967481 stress="0.022594282404586746 -4.067649360547118e-09 1.1832344690999126e-08 -4.067649360547118e-09 0.022708659298489364 -3.8898008986870084e-08 1.1832344690999126e-08 -3.8898008986870084e-08 0.012283561568281112" pbc="T T F"
H        1.40307756       0.81006721      10.00000000        3       1.00000000       0.00000000       0.00000000       0.00000000       0.00000000       0.00000000       0.00000000
H        4.20923268       0.81006721      10.00000000        3       1.00000000       0.00000000       0.00000000       0.00000000       0.00000000       0.00000000       0.00000000
H        0.00000000       3.24026883      10.00000000        3       1.00000000       0.00000000       0.00000000       0.00000000       0.00000000       0.00000000       0.00000000
H        2.80615512       3.24026883      10.00000000        3       1.00000000       0.00000000       0.00000000       0.00000000       0.00000000       0.00000000       0.00000000
H        0.00000000       1.62013441      12.29121606        2       1.00000000       0.00000000       0.00000000       0.00000000       0.00000000       0.00000000       0.00000000
H        2.80615512       1.62013441      12.29121606        2       1.00000000       0.00000000       0.00000000       0.00000000       0.00000000       0.00000000       0.00000000
H        1.40307756       4.05033604      12.29121606        2       1.00000000       0.00000000       0.00000000       0.00000000       0.00000000       0.00000000       0.00000000
H        4.20923268       4.05033604      12.29121606        2       1.00000000       0.00000000       0.00000000       0.00000000       0.00000000       0.00000000       0.00000000
H        0.00000000       0.00000000      14.58243212        1       1.00000000       0.00000000       0.00000000       0.00000000       0.00000000       0.00000000       0.00000000
H        2.80615512       0.00000000      14.58243212        1       1.00000000       0.00000000       0.00000000       0.00000000       0.00000000       0.00000000       0.00000000
H        1.40307756       2.43020162      14.58243212        1       1.00000000       0.00000000       0.00000000       0.00000000       0.00000000       0.00000000       0.00000000
H        4.20923268       2.43020162      14.58243212        1       1.00000000       0.00000000       0.00000000       0.00000000       0.00000000       0.00000000       0.00000000
H        5.61231008       1.62013454       7.77136805        0       1.00000000      -0.00000040      -0.00000268      -0.00000069      -0.00000068      -0.00000512       0.00000019
H        1.40307851       4.05033717       7.77136652        0       1.00000000       0.00000234       0.00000024       0.00000340      -0.00001087       0.00000115      -0.00000477
H        4.21916440       4.05018818      16.81113190        0       1.00000000       0.00000029      -0.00000076       0.00000196      -0.00000076       0.00000074       0.00000566
H        4.20923419       4.05033592       7.77136753        0       1.00000000       0.00000132       0.00000129       0.00000165       0.00000589      -0.00000340       0.00000411
H        2.79622256       1.61998960      16.81113317        0       1.00000000      -0.00000109      -0.00000017      -0.00000252       0.00000053       0.00000150      -0.00000435
H        2.80615374       1.62013632       7.77136785        0       1.00000000      -0.00000132      -0.00000551      -0.00000090       0.00000674       0.00000574      -0.00000078
18
Lattice="5.612310241546866 0.0 0.0 0.0 4.860403243099165 0.0 0.0 0.0 24.582432123328676" Properties=species:S:1:pos:R:3:tags:I:1:masses:R:1:momenta:R:3:forces:R:3 KEmax=23.26679191048647 iter=89908 volume=670.5618179858607 ns_energy=-11.638031574949476 last_walked_iter_clone=89818 energy=-11.638031574967481 stress="0.022594282404586746 -4.067649360547118e-09 1.1832344690999126e-08 -4.067649360547118e-09 0.022708659298489364 -3.8898008986870084e-08 1.1832344690999126e-08 -3.8898008986870084e-08 0.012283561568281112" pbc="T T F"
H        1.40307756       0.81006721      10.00000000        3       1.00000000       0.00000000       0.00000000       0.00000000       0.00000000       0.00000000       0.00000000
H        4.20923268       0.81006721      10.00000000        3       1.00000000       0.00000000       0.00000000       0.00000000       0.00000000       0.00000000       0.00000000
H        0.00000000       3.24026883      10.00000000        3       1.00000000       0.00000000       0.00000000       0.00000000       0.00000000       0.00000000       0.00000000
H        2.80615512       3.24026883      10.00000000        3       1.00000000       0.00000000       0.00000000       0.00000000       0.00000000       0.00000000       0.00000000
H        0.00000000       1.62013441      12.29121606        2       1.00000000       0.00000000       0.00000000       0.00000000       0.00000000       0.00000000       0.00000000
H        2.80615512       1.62013441      12.29121606        2       1.00000000       0.00000000       0.00000000       0.00000000       0.00000000       0.00000000       0.00000000
H        1.40307756       4.05033604      12.29121606        2       1.00000000       0.00000000       0.00000000       0.00000000       0.00000000       0.00000000       0.00000000
H        4.20923268       4.05033604      12.29121606        2       1.00000000       0.00000000       0.00000000       0.00000000       0.00000000       0.00000000       0.00000000
H        0.00000000       0.00000000      14.58243212        1       1.00000000       0.00000000       0.00000000       0.00000000       0.00000000       0.00000000       0.00000000
H        2.80615512       0.00000000      14.58243212        1       1.00000000       0.00000000       0.00000000       0.00000000       0.00000000       0.00000000       0.00000000
H        1.40307756       2.43020162      14.58243212        1       1.00000000       0.00000000       0.00000000       0.00000000       0.00000000       0.00000000       0.00000000
H        4.20923268       2.43020162      14.58243212        1       1.00000000       0.00000000       0.00000000       0.00000000       0.00000000       0.00000000       0.00000000
H        0.00000013       1.62013624       7.77136784        0       1.00000000      -0.00000059       0.00000025       0.00000131      -0.00000068      -0.00000512       0.00000019
H        1.40307685       4.05033797       7.77136804        0       1.00000000       0.00000199      -0.00000393       0.00000222      -0.00001087       0.00000115      -0.00000477
H        4.21916553       4.05018646      16.81113229        0       1.00000000      -0.00000336       0.00000031       0.00000331      -0.00000076       0.00000074       0.00000566
H        4.20923136       4.05033756       7.77136943        0       1.00000000      -0.00000024      -0.00000104       0.00000013       0.00000589      -0.00000340       0.00000411
H        2.79622210       1.61998705      16.81112892        0       1.00000000      -0.00000287      -0.00000155      -0.00000236       0.00000053       0.00000150      -0.00000435
H        2.80615408       1.62013722       7.77136795        0       1.00000000      -0.00000189       0.00000049       0.00000112       0.00000674       0.00000574      -0.00000078
18
Lattice="5.612310241546866 0.0 0.0 0.0 4.860403243099165 0.0 0.0 0.0 24.582432123328676" Properties=species:S:1:pos:R:3:tags:I:1:masses:R:1:momenta:R:3:forces:R:3 KEmax=23.26679191048647 iter=89908 volume=670.5618179858607 ns_energy=-11.63803157495063 last_walked_iter_clone=89860 energy=-11.638031574967481 stress="0.022594282404586746 -4.067649360547118e-09 1.1832344690999126e-08 -4.067649360547118e-09 0.022708659298489364 -3.8898008986870084e-08 1.1832344690999126e-08 -3.8898008986870084e-08 0.012283561568281112" pbc="T T F"
H        1.40307756       0.81006721      10.00000000        3       1.00000000       0.00000000       0.00000000       0.00000000       0.00000000       0.00000000       0.00000000
H        4.20923268       0.81006721      10.00000000        3       1.00000000       0.00000000       0.00000000       0.00000000       0.00000000       0.00000000       0.00000000
H        0.00000000       3.24026883      10.00000000        3       1.00000000       0.00000000       0.00000000       0.00000000       0.00000000       0.00000000       0.00000000
H        2.80615512       3.24026883      10.00000000        3       1.00000000       0.00000000       0.00000000       0.00000000       0.00000000       0.00000000       0.00000000
H        0.00000000       1.62013441      12.29121606        2       1.00000000       0.00000000       0.00000000       0.00000000       0.00000000       0.00000000       0.00000000
H        2.80615512       1.62013441      12.29121606        2       1.00000000       0.00000000       0.00000000       0.00000000       0.00000000       0.00000000       0.00000000
H        1.40307756       4.05033604      12.29121606        2       1.00000000       0.00000000       0.00000000       0.00000000       0.00000000       0.00000000       0.00000000
H        4.20923268       4.05033604      12.29121606        2       1.00000000       0.00000000       0.00000000       0.00000000       0.00000000       0.00000000       0.00000000
H        0.00000000       0.00000000      14.58243212        1       1.00000000       0.00000000       0.00000000       0.00000000       0.00000000       0.00000000       0.00000000
H        2.80615512       0.00000000      14.58243212        1       1.00000000       0.00000000       0.00000000       0.00000000       0.00000000       0.00000000       0.00000000
H        1.40307756       2.43020162      14.58243212        1       1.00000000       0.00000000       0.00000000       0.00000000       0.00000000       0.00000000       0.00000000
H        4.20923268       2.43020162      14.58243212        1       1.00000000       0.00000000       0.00000000       0.00000000       0.00000000       0.00000000       0.00000000
H       -0.00000026       1.62013582       7.77136433        0       1.00000000      -0.00000114      -0.00000163      -0.00000298      -0.00000068      -0.00000512       0.00000019
H        1.40307858       4.05033689       7.77136590        0       1.00000000      -0.00000143      -0.00000078      -0.00000289      -0.00001087       0.00000115      -0.00000477
H        4.21916166       4.05019213      16.81113131        0       1.00000000      -0.00000335      -0.00000055       0.00000038      -0.00000076       0.00000074       0.00000566