18
Lattice="5.612310241546866 0.0 0.0 0.0 4.860403243099165 0.0 0.0 0.0 24.582432123328676" Properties=species:S:1:pos:R:3:tags:I:1:masses:R:1:momenta:R:3:forces:R:3 KEmax=23.26679191048647 iter=56977 volume=670.5618179858607 ns_energy=-11.638031147949363 last_walked_iter_clone=56957 energy=-11.638031345866521 stress="0.02259385403679524 -4.605633773869605e-07 5.293921875181954e-07 -4.605633773869605e-07 0.022711466312072152 3.0146552919832734e-06 5.293921875181954e-07 3.0146552919832734e-06 0.012288150893820097" pbc="T T F"
H        1.40307756       0.81006721      10.00000000        3       1.00000000       0.00000000       0.00000000       0.00000000       0.00000000       0.00000000       0.00000000
H        4.20923268       0.81006721      10.00000000        3       1.00000000       0.00000000       0.00000000       0.00000000       0.00000000       0.00000000       0.00000000
H        0.00000000       3.24026883      10.00000000        3       1.00000000       0.00000000       0.00000000       0.00000000       0.00000000       0.00000000       0.00000000
H        2.80615512       3.24026883      10.00000000        3       1.00000000       0.00000000       0.00000000       0.00000000       0.00000000       0.00000000       0.00000000
H        0.00000000       1.62013441      12.29121606        2       1.00000000       0.00000000       0.00000000       0.00000000       0.00000000       0.00000000       0.00000000
H        2.80615512       1.62013441      12.29121606        2       1.00000000       0.00000000       0.00000000       0.00000000       0.00000000       0.00000000       0.00000000
H        1.40307756       4.05033604      12.29121606        2       1.00000000       0.00000000       0.00000000       0.00000000       0.00000000       0.00000000       0.00000000
H        4.20923268       4.05033604      12.29121606        2       1.00000000       0.00000000       0.00000000       0.00000000       0.00000000       0.00000000       0.00000000
H        0.00000000       0.00000000      14.58243212        1       1.00000000       0.00000000       0.00000000       0.00000000       0.00000000       0.00000000       0.00000000
H        2.80615512       0.00000000      14.58243212        1       1.00000000       0.00000000       0.00000000       0.00000000       0.00000000       0.00000000       0.00000000
H        1.40307756       2.43020162      14.58243212        1       1.00000000       0.00000000       0.00000000       0.00000000       0.00000000       0.00000000       0.00000000
H        4.20923268       2.43020162      14.58243212        1       1.00000000       0.00000000       0.00000000       0.00000000       0.00000000       0.00000000       0.00000000
H        0.00006767       1.62006374       7.77111609        0       1.00000000      -0.00013504      -0.00007702      -0.00009678       0.00054583       0.00008022      -0.00010096
H        1.40316222       4.05023039       7.77141980        0       1.00000000      -0.00007516       0.00005628       0.00008628       0.00057341       0.00001641       0.00020921
H        4.21924186       4.05023422      16.81106029        0       1.00000000       0.00004968       0.00011836       0.00028043       0.00003868      -0.00007490       0.00016052
H        4.20945273       4.05021339       7.77152322        0       1.00000000      -0.00007017      -0.00013905      -0.00002291      -0.00029476       0.00002143       0.00019104
H        2.79611069       1.62015697      16.81104741        0       1.00000000       0.00001720      -0.00015278       0.00002066       0.00011231      -0.00016109       0.00009419
H        2.80636381       1.62015823       7.77142182        0       1.00000000       0.00021858      -0.00014361       0.00020748      -0.00061499      -0.00002073       0.00048043
18
Lattice="5.612310241546866 0.0 0.0 0.0 4.860403243099165 0.0 0.0 0.0 24.582432123328676" Properties=species:S:1:pos:R:3:tags:I:1:masses:R:1:momenta:R:3:forces:R:3 KEmax=23.26679191048647 iter=56977 volume=670.5618179858607 ns_energy=-11.638031161305486 last_walked_iter_clone=56956 energy=-11.638031345866521 stress="0.02259385403679524 -4.605633773869605e-07 5.293921875181954e-07 -4.605633773869605e-07 0.022711466312072152 3.0146552919832734e-06 5.293921875181954e-07 3.0146552919832734e-06 0.012288150893820097" pbc="T T F"
H        1.40307756       0.81006721      10.00000000        3       1.00000000       0.00000000       0.00000000       0.00000000       0.00000000       0.00000000       0.00000000
H        4.20923268       0.81006721      10.00000000        3       1.00000000       0.00000000       0.00000000       0.00000000       0.00000000       0.00000000       0.00000000
H        0.00000000       3.24026883      10.00000000        3       1.00000000       0.00000000       0.00000000       0.00000000       0.00000000       0.00000000       0.00000000
H        2.80615512       3.24026883      10.00000000        3       1.00000000       0.00000000       0.00000000       0.00000000       0.00000000       0.00000000       0.00000000
H        0.00000000       1.62013441      12.29121606        2       1.00000000       0.00000000       0.00000000       0.00000000       0.00000000       0.00000000       0.00000000
H        2.80615512       1.62013441      12.29121606        2       1.00000000       0.00000000       0.00000000       0.00000000       0.00000000       0.00000000       0.00000000
H        1.40307756       4.05033604      12.29121606        2       1.00000000       0.00000000       0.00000000       0.00000000       0.00000000       0.00000000       0.00000000
H        4.20923268       4.05033604      12.29121606        2       1.00000000       0.00000000       0.00000000       0.00000000       0.00000000       0.00000000       0.00000000
H        0.00000000       0.00000000      14.58243212        1       1.00000000       0.00000000       0.00000000       0.00000000       0.00000000       0.00000000       0.00000000
H        2.80615512       0.00000000      14.58243212        1       1.00000000       0.00000000       0.00000000       0.00000000       0.00000000       0.00000000       0.00000000
H        1.40307756       2.43020162      14.58243212        1       1.00000000       0.00000000       0.00000000       0.00000000       0.00000000       0.00000000       0.00000000
H        4.20923268       2.43020162      14.58243212        1       1.00000000       0.00000000       0.00000000       0.00000000       0.00000000       0.00000000       0.00000000
H       -0.00008201       1.62021034       7.77139189        0       1.00000000      -0.00003512      -0.00024887       0.00020830       0.00054583       0.00008022      -0.00010096
H        1.40312238       4.05034111       7.77143651        0       1.00000000      -0.00010624      -0.00015083      -0.00004242       0.00057341       0.00001641       0.00020921
H        4.21913284       4.04998781      16.81099235        0       1.00000000      -0.00021440      -0.00011613       0.00021138       0.00003868      -0.00007490       0.00016052
H        4.20935367       4.05035388       7.77128204        0       1.00000000      -0.00009743       0.00007318       0.00000467      -0.00029476       0.00002143       0.00019104
H        2.79623197       1.61986302      16.81111453        0       1.00000000       0.00006943      -0.00031825       0.00010936       0.00011231      -0.00016109       0.00009419
H        2.80603105       1.62029850       7.77152433        0       1.00000000       0.00004791      -0.00026329      -0.00000634      -0.00061499      -0.00002073       0.00048043
18
Lattice="5.612310241546866 0.0 0.0 0.0 4.860403243099165 0.0 0.0 0.0 24.582432123328676" Properties=species:S:1:pos:R:3:tags:I:1:masses:R:1:momenta:R:3:forces:R:3 KEmax=23.26679191048647 iter=56977 volume=670.5618179858607 ns_energy=-11.638031147075369 last_walked_iter_clone=56949 energy=-11.638031345866521 stress="0.02259385403679524 -4.605633773869605e-07 5.293921875181954e-07 -4.605633773869605e-07 0.022711466312072152 3.0146552919832734e-06 5.293921875181954e-07 3.0146552919832734e-06 0.012288150893820097" pbc="T T F"
H        1.40307756       0.81006721      10.00000000        3       1.00000000       0.00000000       0.00000000       0.00000000       0.00000000       0.00000000       0.00000000
H        4.20923268       0.81006721      10.00000000        3       1.00000000       0.00000000       0.00000000       0.00000000       0.00000000       0.00000000       0.00000000
H        0.00000000       3.24026883      10.00000000        3       1.00000000       0.00000000       0.00000000       0.00000000       0.00000000       0.00000000       0.00000000
H        2.80615512       3.24026883      10.00000000        3       1.00000000       0.00000000       0.00000000       0.00000000       0.00000000       0.00000000       0.00000000
H        0.00000000       1.62013441      12.29121606        2       1.00000000       0.00000000       0.00000000       0.00000000       0.00000000       0.00000000       0.00000000
H        2.80615512       1.62013441      12.29121606        2       1.00000000       0.00000000       0.00000000       0.00000000       0.00000000       0.00000000       0.00000000
H        1.40307756       4.05033604      12.29121606        2       1.00000000       0.00000000       0.00000000       0.00000000       0.00000000       0.00000000       0.00000000
H        4.20923268       4.05033604      12.29121606        2       1.00000000       0.00000000       0.00000000       0.00000000       0.00000000       0.00000000       0.00000000
H        0.00000000       0.00000000      14.58243212        1       1.00000000       0.00000000       0.00000000       0.00000000       0.00000000       0.00000000       0.00000000
H        2.80615512       0.00000000      14.58243212        1       1.00000000       0.00000000       0.00000000       0.00000000       0.00000000       0.00000000       0.00000000
H        1.40307756       2.43020162      14.58243212        1       1.00000000       0.00000000       0.00000000       0.00000000       0.00000000       0.00000000       0.00000000
H        4.20923268       2.43020162      14.58243212        1       1.00000000       0.00000000       0.00000000       0.00000000       0.00000000       0.00000000       0.00000000
H        0.00010243       1.62014688       7.77126129        0       1.00000000      -0.00018484      -0.00027151      -0.00021101       0.00054583       0.00008022      -0.00010096
H        1.40313126       4.05034240       7.77133063        0       1.00000000      -0.00004803      -0.00006465       0.00009062       0.00057341       0.00001641       0.00020921
H        4.21939315       4.05026749      16.81114974        0       1.00000000      -0.00007521      -0.00009012       0.00011380       0.00003868      -0.00007490       0.00016052
H        4.20940707       4.05017191       7.77151078        0       1.00000000      -0.00009290      -0.00031760       0.00007428      -0.00029476       0.00002143       0.00019104
H        2.79612735       1.62006128      16.81101733        0       1.00000000       0.00008300      -0.00009033       0.00017460       0.00011231      -0.00016109       0.00009419
H        2.80627937       1.62019205       7.77144089        0       1.00000000       0.00015236      -0.00024997      -0.00001253      -0.00061499      -0.00002073       0.00048043
18
Lattice="5.612310241546866 0.0 0.0 0.0 4.860403243099165 0.0 0.0 0.0 24.582432123328676" Properties=species:S:1:pos:R:3:tags:I:1:masses:R:1:momenta:R:3:forces:R:3 KEmax=23.26679191048647 iter=56977 volume=670.5618179858607 ns_energy=-11.63803114611348 last_walked_iter_clone=56886 energy=-11.638031345866521 stress="0.02259385403679524 -4.605633773869605e-07 5.293921875181954e-07 -4.605633773869605e-07 0.022711466312072152 3.0146552919832734e-06 5.293921875181954e-07 3.0146552919832734e-06 0.012288150893820097" pbc="T T F"
H        1.40307756       0.81006721      10.00000000        3       1.00000000       0.00000000       0.00000000       0.00000000       0.00000000       0.00000000       0.00000000
H        4.20923268       0.81006721      10.00000000        3       1.00000000       0.00000000       0.00000000       0.00000000       0.00000000       0.00000000       0.00000000
H        0.00000000       3.24026883      10.00000000        3       1.00000000       0.00000000       0.00000000       0.00000000       0.00000000       0.00000000       0.00000000
H        2.80615512       3.24026883      10.00000000        3       1.00000000       0.00000000       0.00000000       0.00000000       0.00000000       0.00000000       0.00000000
H        0.00000000       1.62013441      12.29121606        2       1.00000000       0.00000000       0.00000000       0.00000000       0.00000000       0.00000000       0.00000000
H        2.80615512       1.62013441      12.29121606        2       1.00000000       0.00000000       0.00000000       0.00000000       0.00000000       0.00000000       0.00000000
H        1.40307756       4.05033604      12.29121606        2       1.00000000       0.00000000       0.00000000       0.00000000       0.00000000       0.00000000       0.00000000
H        4.20923268       4.05033604      12.29121606        2       1.00000000       0.00000000       0.00000000       0.00000000       0.00000000       0.00000000       0.00000000
H        0.00000000       0.00000000      14.58243212        1       1.00000000       0.00000000       0.00000000       0.00000000       0.00000000       0.00000000       0.00000000
H        2.80615512       0.00000000      14.58243212        1       1.00000000       0.00000000       0.00000000       0.00000000       0.00000000       0.00000000       0.00000000
H        1.40307756       2.43020162      14.58243212        1       1.00000000       0.00000000       0.00000000       0.00000000       0.00000000       0.00000000       0.00000000
H        4.20923268       2.43020162      14.58243212        1       1.00000000       0.00000000       0.00000000       0.00000000       0.00000000       0.00000000       0.00000000
H       -0.00012959       1.62039132       7.77136838        0       1.00000000      -0.00010742       0.00016573       0.00002235       0.00054583       0.00008022      -0.00010096
H        1.40288434       4.05053103       7.77141813        0       1.00000000      -0.00009448       0.00009723      -0.00014229       0.00057341       0.00001641       0.00020921
H        4.21924456       4.05026710      16.81120992        0       1.00000000      -0.00003834       0.00028895       0.00022822       0.00003868      -0.00007490       0.00016052
H        4.20929017       4.05037684       7.77134523        0       1.00000000      -0.00013054      -0.00024893      -0.00022461      -0.00029476       0.00002143       0.00019104
H        2.79627778       1.62008686      16.81104997        0       1.00000000      -0.00013252       0.00007984      -0.00012765       0.00011231      -0.00016109       0.00009419
H        2.80610939       1.62027337       7.77142846        0       1.00000000      -0.00022534       0.00002967      -0.00008366      -0.00061499      -0.00002073       0.00048043
18
Lattice="5.612310241546866 0.0 0.0 0.0 4.860403243099165 0.0 0.0 0.0 24.582432123328676" Properties=species:S:1:pos:R:3:tags:I:1:masses:R:1:momenta:R:3:forces:R:3 KEmax=23.26679191048647 iter=56977 volume=670.5618179858607 ns_energy=-11.638031147223126 last_walked_iter_clone=56896 energy=-11.638031345866521 stress="0.02259385403679524 -4.605633773869605e-07 5.293921875181954e-07 -4.605633773869605e-07 0.022711466312072152 3.0146552919832734e-06 5.293921875181954e-07 3.0146552919832734e-06 0.012288150893820097" pbc="T T F"
H        1.40307756       0.81006721      10.00000000        3       1.00000000       0.00000000       0.00000000       0.00000000       0.00000000       0.00000000       0.00000000
H        4.20923268       0.81006721      10.00000000        3       1.00000000       0.00000000       0.00000000       0.00000000       0.00000000       0.00000000       0.00000000
H        0.00000000       3.24026883      10.00000000        3       1.00000000       0.00000000       0.00000000       0.00000000       0.00000000       0.00000000       0.00000000
H        2.80615512       3.24026883      10.00000000        3       1.00000000       0.00000000       0.00000000       0.00000000       0.00000000       0.00000000       0.00000000
H        0.00000000       1.62013441      12.29121606        2       1.00000000       0.00000000       0.00000000       0.00000000       0.00000000       0.00000000       0.00000000
H        2.80615512       1.62013441      12.29121606        2       1.00000000       0.00000000       0.00000000       0.00000000       0.00000000       0.00000000       0.00000000
H        1.40307756       4.05033604      12.29121606        2       1.00000000       0.00000000       0.00000000       0.00000000       0.00000000       0.00000000       0.00000000
H        4.20923268       4.05033604      12.29121606        2       1.00000000       0.00000000       0.00000000       0.00000000       0.00000000       0.00000000       0.00000000
H        0.00000000       0.00000000      14.58243212        1       1.00000000       0.00000000       0.00000000       0.00000000       0.00000000       0.00000000       0.00000000
H        2.80615512       0.00000000      14.58243212        1       1.00000000       0.00000000       0.00000000       0.00000000       0.00000000       0.00000000       0.00000000
H        1.40307756       2.43020162      14.58243212        1       1.00000000       0.00000000       0.00000000       0.00000000       0.00000000       0.00000000       0.00000000
H        4.20923268       2.43020162      14.58243212        1       1.00000000       0.00000000       0.00000000       0.00000000       0.00000000       0.00000000       0.00000000
H        0.00011154       1.62022364       7.77129079        0       1.00000000       0.00001636       0.00005143      -0.00021022       0.00054583       0.00008022      -0.00010096
H        1.40305370       4.05037642       7.77134793        0       1.00000000      -0.00009646       0.00010105       0.00016354       0.00057341       0.00001641       0.00020921
H        4.21933200       4.05029449      16.81118768        0       1.00000000      -0.00006603       0.00019062       0.00015158       0.00003868      -0.00007490       0.00016052
H        4.20913957       4.05033633       7.77141744        0       1.00000000       0.00004921       0.00035215      -0.00007507      -0.00029476       0.00002143       0.00019104
H        2.79618800       1.61999592      16.81118001        0       1.00000000      -0.00007727      -0.00020853       0.00005232       0.00011231      -0.00016109       0.00009419
H        2.80623267       1.62001215       7.77164134        0       1.00000000      -0.00019278       0.00021455       0.00001696      -0.00061499      -0.00002073       0.00048043
18
Lattice="5.612310241546866 0.0 0.0 0.0 4.860403243099165 0.0 0.0 0.0 24.582432123328676" Properties=species:S:1:pos:R:3:tags:I:1:masses:R:1:momenta:R:3:forces:R:3 KEmax=23.26679191048647 iter=56977 volume=670.5618179858607 ns_energy=-11.63803115270559 last_walked_iter_clone=56863 energy=-11.638031345866521 stress="0.02259385403679524 -4.605633773869605e-07 5.293921875181954e-07 -4.605633773869605e-07 0.022711466312072152 3.0146552919832734e-06 5.293921875181954e-07 3.0146552919832734e-06 0.012288150893820097" pbc="T T F"
H        1.40307756       0.81006721      10.00000000        3       1.00000000       0.00000000       0.00000000       0.00000000       0.00000000       0.00000000       0.00000000
H        4.20923268       0.81006721      10.00000000        3       1.00000000       0.00000000       0.00000000       0.00000000       0.00000000       0.00000000       0.00000000
H        0.00000000       3.24026883      10.00000000        3       1.00000000       0.00000000       0.00000000       0.00000000       0.00000000       0.00000000       0.00000000
H        2.80615512       3.24026883      10.00000000        3       1.00000000       0.00000000       0.00000000       0.00000000       0.00000000       0.00000000       0.00000000
H        0.00000000       1.62013441      12.29121606        2       1.00000000       0.00000000       0.00000000       0.00000000       0.00000000       0.00000000       0.00000000
H        2.80615512       1.62013441      12.29121606        2       1.00000000       0.00000000       0.00000000       0.00000000       0.00000000       0.00000000       0.00000000
H        1.40307756       4.05033604      12.29121606        2       1.00000000       0.00000000       0.00000000       0.00000000       0.00000000       0.00000000       0.00000000
H        4.20923268       4.05033604      12.29121606        2       1.00000000       0.00000000       0.00000000       0.00000000       0.00000000       0.00000000       0.00000000
H        0.00000000       0.00000000      14.58243212        1       1.00000000       0.00000000       0.00000000       0.00000000       0.00000000       0.00000000       0.00000000
H        2.80615512       0.00000000      14.58243212        1       1.00000000       0.00000000       0.00000000       0.00000000       0.00000000       0.00000000       0.00000000
H        1.40307756       2.43020162      14.58243212        1       1.00000000       0.00000000       0.00000000       0.00000000       0.00000000       0.00000000       0.00000000
H        4.20923268       2.43020162      14.58243212        1       1.00000000       0.00000000       0.00000000       0.00000000       0.00000000       0.00000000       0.00000000
H        5.61242892       1.62031463       7.77142745        0       1.00000000       0.00003264      -0.00014488      -0.00008655       0.00054583       0.00008022      -0.00010096
H        1.40301076       4.05055387       7.77140815        0       1.00000000       0.00000354       0.00009107       0.00012594       0.00057341       0.00001641       0.00020921
H        4.21931477       4.05006584      16.81125151        0       1.00000000      -0.00000115      -0.00024334      -0.00041368       0.00003868      -0.00007490       0.00016052
H        4.20911644       4.05060210       7.77137975        0       1.00000000       0.00018772       0.00005379      -0.00010056      -0.00029476       0.00002143       0.00019104
H        2.79617213       1.61993083      16.81118962        0       1.00000000      -0.00020681      -0.00009333       0.00001934       0.00011231      -0.00016109       0.00009419
H        2.80620355       1.62042093       7.77139689        0       1.00000000       0.00031794       0.00010352      -0.00000713      -0.00061499      -0.00002073       0.00048043
18
Lattice="5.612310241546866 0.0 0.0 0.0 4.860403243099165 0.0 0.0 0.0 24.582432123328676" Properties=species:S:1:pos:R:3:tags:I:1:masses:R:1:momenta:R:3:forces:R:3 KEmax=23.26679191048647 iter=56977 volume=670.5618179858607 ns_energy=-11.638031159587579 last_walked_iter_clone=56966 energy=-11.638031345866521 stress="0.02259385403679524 -4.605633773869605e-07 5.293921875181954e-07 -4.605633773869605e-07 0.022711466312072152 3.0146552919832734e-06 5.293921875181954e-07 3.0146552919832734e-06 0.012288150893820097" pbc="T T F"
H        1.40307756       0.81006721      10.00000000        3       1.00000000       0.00000000       0.00000000       0.00000000       0.00000000       0.00000000       0.00000000
H        4.20923268       0.81006721      10.00000000        3       1.00000000       0.00000000       0.00000000       0.00000000       0.00000000       0.00000000       0.00000000
H        0.00000000       3.24026883      10.00000000        3       1.00000000       0.00000000       0.00000000       0.00000000       0.00000000       0.00000000       0.00000000
H        2.80615512       3.24026883      10.00000000        3       1.00000000       0.00000000       0.00000000       0.00000000       0.00000000       0.00000000       0.00000000
H        0.00000000       1.62013441      12.29121606        2       1.00000000       0.00000000       0.00000000       0.00000000       0.00000000       0.00000000       0.00000000
H        2.80615512       1.62013441      12.29121606        2       1.00000000       0.00000000       0.00000000       0.00000000       0.00000000       0.00000000       0.00000000
H        1.40307756       4.05033604      12.29121606        2       1.00000000       0.00000000       0.00000000       0.00000000       0.00000000       0.00000000       0.00000000
H        4.20923268       4.05033604      12.29121606        2       1.00000000       0.00000000       0.00000000       0.00000000       0.00000000       0.00000000       0.00000000
H        0.00000000       0.00000000      14.58243212        1       1.00000000       0.00000000       0.00000000       0.00000000       0.00000000       0.00000000       0.00000000
H        2.80615512       0.00000000      14.58243212        1       1.00000000       0.00000000       0.00000000       0.00000000       0.00000000       0.00000000       0.00000000
H        1.40307756       2.43020162      14.58243212        1       1.00000000       0.00000000       0.00000000       0.00000000       0.00000000       0.00000000       0.00000000
H        4.20923268       2.43020162      14.58243212        1       1.00000000       0.00000000       0.00000000       0.00000000       0.00000000       0.00000000       0.00000000
H        5.61240430       1.62012016       7.77122257        0       1.00000000      -0.00017881       0.00014125       0.00021891       0.00054583       0.00008022      -0.00010096
H        1.40307998       4.05025958       7.77149605        0       1.00000000      -0.00006027      -0.00010332      -0.00014023       0.00057341       0.00001641       0.00020921
H        4.21897124       4.05005988      16.81117030        0       1.00000000       0.00006189      -0.00002524      -0.00028698       0.00003868      -0.00007490       0.00016052
H        4.20913301       4.05030276       7.77147251        0       1.00000000       0.00012050      -0.00021699      -0.00018950      -0.00029476       0.00002143       0.00019104
H        2.79598125       1.61991795      16.81099555        0       1.00000000       0.00022071      -0.00014805      -0.00008422       0.00011231      -0.00016109       0.00009419
H        2.80614889       1.61998033       7.77142900        0       1.00000000       0.00016869      -0.00015565       0.00005118      -0.00061499      -0.00002073       0.00048043
18
Lattice="5.612310241546866 0.0 0.0 0.0 4.860403243099165 0.0 0.0 0.0 24.582432123328676" Properties=species:S:1:pos:R:3:tags:I:1:masses:R:1:momenta:R:3:forces:R:3 KEmax=23.26679191048647 iter=56977 volume=670.5618179858607 ns_energy=-11.638031153945064 last_walked_iter_clone=56974 energy=-11.638031345866521 stress="0.02259385403679524 -4.605633773869605e-07 5.293921875181954e-07 -4.605633773869605e-07 0.022711466312072152 3.0146552919832734e-06 5.293921875181954e-07 3.0146552919832734e-06 0.012288150893820097" pbc="T T F"
H        1.40307756       0.81006721      10.00000000        3       1.00000000       0.00000000       0.00000000       0.00000000       0.00000000       0.00000000       0.00000000
H        4.20923268       0.81006721      10.00000000        3       1.00000000       0.00000000       0.00000000       0.00000000       0.00000000       0.00000000       0.00000000
H        0.00000000       3.24026883      10.00000000        3       1.00000000       0.00000000       0.00000000       0.00000000       0.00000000       0.00000000       0.00000000
H        2.80615512       3.24026883      10.00000000        3       1.00000000       0.00000000       0.00000000       0.00000000       0.00000000       0.00000000       0.00000000
H        0.00000000       1.62013441      12.29121606        2       1.00000000       0.00000000       0.00000000       0.00000000       0.00000000       0.00000000       0.00000000
H        2.80615512       1.62013441      12.29121606        2       1.00000000       0.00000000       0.00000000       0.00000000       0.00000000       0.00000000       0.00000000
H        1.40307756       4.05033604      12.29121606        2       1.00000000       0.00000000       0.00000000       0.00000000       0.00000000       0.00000000       0.00000000
H        4.20923268       4.05033604      12.29121606        2       1.00000000       0.00000000       0.00000000       0.00000000       0.00000000       0.00000000       0.00000000
H        0.00000000       0.00000000      14.58243212        1       1.00000000       0.00000000       0.00000000       0.00000000       0.00000000       0.00000000       0.00000000
H        2.80615512       0.00000000      14.58243212        1       1.00000000       0.00000000       0.00000000       0.00000000       0.00000000       0.00000000       0.00000000
H        1.40307756       2.43020162      14.58243212        1       1.00000000       0.00000000       0.00000000       0.00000000       0.00000000       0.00000000       0.00000000
H        4.20923268       2.43020162      14.58243212        1       1.00000000       0.00000000       0.00000000       0.00000000       0.00000000       0.00000000       0.00000000
H       -0.00010909       1.62028032       7.77135304        0       1.00000000      -0.00002853       0.00018022      -0.00004207       0.00054583       0.00008022      -0.00010096
H        1.40300287       4.05032997       7.77146561        0       1.00000000      -0.00011781       0.00022322       0.00028100       0.00057341       0.00001641       0.00020921
H        4.21913990       4.05023254      16.81110932        0       1.00000000       0.00001488      -0.00020391       0.00013229       0.00003868      -0.00007490       0.00016052