20
Lattice="5.612310241546866 0.0 0.0 0.0 4.860403243099165 0.0 0.0 0.0 44.58243212332868" Properties=species:S:1:pos:R:3:tags:I:1:masses:R:1:momenta:R:3:forces:R:3 KEmax=25.851991011651638 iter=95776 volume=1216.1236359717223 set_wall=T ns_energy=-13.635829702285186 last_walked_iter_clone=95618 energy=-13.635841132841847 stress="0.025353365673198947 -1.102507567073263e-05 1.4679779570308453e-05 -1.102507567073263e-05 0.025357202270885174 1.4419970005093664e-05 1.4679779570308453e-05 1.4419970005093664e-05 0.011556651447864818" pbc="T T F"
H        1.40307756       0.81006721      20.00000000        3       1.00000000       0.00000000       0.00000000       0.00000000       0.00000000       0.00000000       0.00000000
H        4.20923268       0.81006721      20.00000000        3       1.00000000       0.00000000       0.00000000       0.00000000       0.00000000       0.00000000       0.00000000
H        0.00000000       3.24026883      20.00000000        3       1.00000000       0.00000000       0.00000000       0.00000000       0.00000000       0.00000000       0.00000000
H        2.80615512       3.24026883      20.00000000        3       1.00000000       0.00000000       0.00000000       0.00000000       0.00000000       0.00000000       0.00000000
H        0.00000000       1.62013441      22.29121606        2       1.00000000       0.00000000       0.00000000       0.00000000       0.00000000       0.00000000       0.00000000
H        2.80615512       1.62013441      22.29121606        2       1.00000000       0.00000000       0.00000000       0.00000000       0.00000000       0.00000000       0.00000000
H        1.40307756       4.05033604      22.29121606        2       1.00000000       0.00000000       0.00000000       0.00000000       0.00000000       0.00000000       0.00000000
H        4.20923268       4.05033604      22.29121606        2       1.00000000       0.00000000       0.00000000       0.00000000       0.00000000       0.00000000       0.00000000
H        0.00000000       0.00000000      24.58243212        1       1.00000000       0.00000000       0.00000000       0.00000000       0.00000000       0.00000000       0.00000000
H        2.80615512       0.00000000      24.58243212        1       1.00000000       0.00000000       0.00000000       0.00000000       0.00000000       0.00000000       0.00000000
H        1.40307756       2.43020162      24.58243212        1       1.00000000       0.00000000       0.00000000       0.00000000       0.00000000       0.00000000       0.00000000
H        4.20923268       2.43020162      24.58243212        1       1.00000000       0.00000000       0.00000000       0.00000000       0.00000000       0.00000000       0.00000000
H        4.20928080       4.04933578      26.79091906        0       1.00000000       0.00079560      -0.00034748       0.00114227      -0.00480451      -0.00130481      -0.00291473
H        5.61125785       4.86037061      29.01714575        0       1.00000000       0.00083709       0.00063093       0.00060136       0.00103234       0.00099029       0.00209300
H        5.61162254       1.62033956      26.79141795        0       1.00000000       0.00115019       0.00115450      -0.00053606      -0.00043760       0.00028427      -0.00069264
H        2.80511987       4.85975807      29.01703263        0       1.00000000       0.00128047      -0.00037737      -0.00066688      -0.00107715       0.00153176      -0.00056462
H        1.40361738       4.05029334      26.79100505        0       1.00000000       0.00115722      -0.00159584       0.00106659       0.00306574       0.00140882      -0.00231175
H        2.80564202       1.61967546      26.79025889        0       1.00000000      -0.00006482       0.00053306      -0.00256444      -0.00026298      -0.00079741       0.00181052
H        1.40219915       2.42926228      29.01713817        0       1.00000000       0.00069215       0.00015071       0.00015542       0.00330778      -0.00195901       0.00126464
H        4.20782275       2.42993599      29.01694093        0       1.00000000      -0.00018986       0.00173968      -0.00059658      -0.00286006      -0.00115955      -0.00034047
20
Lattice="5.612310241546866 0.0 0.0 0.0 4.860403243099165 0.0 0.0 0.0 44.58243212332868" Properties=species:S:1:pos:R:3:tags:I:1:masses:R:1:momenta:R:3:forces:R:3 KEmax=25.851991011651638 iter=95776 volume=1216.1236359717223 set_wall=T ns_energy=-13.635828666363647 last_walked_iter_clone=94931 energy=-13.635841132841847 stress="0.025353365673198947 -1.102507567073263e-05 1.4679779570308453e-05 -1.102507567073263e-05 0.025357202270885174 1.4419970005093664e-05 1.4679779570308453e-05 1.4419970005093664e-05 0.011556651447864818" pbc="T T F"
H        1.40307756       0.81006721      20.00000000        3       1.00000000       0.00000000       0.00000000       0.00000000       0.00000000       0.00000000       0.00000000
H        4.20923268       0.81006721      20.00000000        3       1.00000000       0.00000000       0.00000000       0.00000000       0.00000000       0.00000000       0.00000000
H        0.00000000       3.24026883      20.00000000        3       1.00000000       0.00000000       0.00000000       0.00000000       0.00000000       0.00000000       0.00000000
H        2.80615512       3.24026883      20.00000000        3       1.00000000       0.00000000       0.00000000       0.00000000       0.00000000       0.00000000       0.00000000
H        0.00000000       1.62013441      22.29121606        2       1.00000000       0.00000000       0.00000000       0.00000000       0.00000000       0.00000000       0.00000000
H        2.80615512       1.62013441      22.29121606        2       1.00000000       0.00000000       0.00000000       0.00000000       0.00000000       0.00000000       0.00000000
H        1.40307756       4.05033604      22.29121606        2       1.00000000       0.00000000       0.00000000       0.00000000       0.00000000       0.00000000       0.00000000
H        4.20923268       4.05033604      22.29121606        2       1.00000000       0.00000000       0.00000000       0.00000000       0.00000000       0.00000000       0.00000000
H        0.00000000       0.00000000      24.58243212        1       1.00000000       0.00000000       0.00000000       0.00000000       0.00000000       0.00000000       0.00000000
H        2.80615512       0.00000000      24.58243212        1       1.00000000       0.00000000       0.00000000       0.00000000       0.00000000       0.00000000       0.00000000
H        1.40307756       2.43020162      24.58243212        1       1.00000000       0.00000000       0.00000000       0.00000000       0.00000000       0.00000000       0.00000000
H        4.20923268       2.43020162      24.58243212        1       1.00000000       0.00000000       0.00000000       0.00000000       0.00000000       0.00000000       0.00000000
H        4.20919004       4.05046657      26.79031499        0       1.00000000       0.00110027       0.00118961      -0.00031611      -0.00480451      -0.00130481      -0.00291473
H        5.61245773       4.86078364      29.01614615        0       1.00000000       0.00086051      -0.00235485      -0.00023337       0.00103234       0.00099029       0.00209300
H       -0.00040419       1.62085142      26.79056050        0       1.00000000      -0.00125512       0.00132198      -0.00004347      -0.00043760       0.00028427      -0.00069264
H        2.80631612       4.86087979      29.01714941        0       1.00000000       0.00014434      -0.00065579       0.00067844      -0.00107715       0.00153176      -0.00056462
H        1.40312570       4.04947684      26.79085115        0       1.00000000      -0.00211064       0.00134777       0.00023762       0.00306574       0.00140882      -0.00231175
H        2.80606957       1.62047014      26.79117177        0       1.00000000       0.00022742       0.00050455      -0.00042702      -0.00026298      -0.00079741       0.00181052
H        1.40319479       2.43054300      29.01759042        0       1.00000000       0.00147895      -0.00014621       0.00156739       0.00330778      -0.00195901       0.00126464
H        4.20932644       2.43099747      29.01671141        0       1.00000000      -0.00147366       0.00179340      -0.00076332      -0.00286006      -0.00115955      -0.00034047
20
Lattice="5.612310241546866 0.0 0.0 0.0 4.860403243099165 0.0 0.0 0.0 44.58243212332868" Properties=species:S:1:pos:R:3:tags:I:1:masses:R:1:momenta:R:3:forces:R:3 KEmax=25.851991011651638 iter=95776 volume=1216.1236359717223 set_wall=T ns_energy=-13.635829537926059 last_walked_iter_clone=95439 energy=-13.635841132841847 stress="0.025353365673198947 -1.102507567073263e-05 1.4679779570308453e-05 -1.102507567073263e-05 0.025357202270885174 1.4419970005093664e-05 1.4679779570308453e-05 1.4419970005093664e-05 0.011556651447864818" pbc="T T F"
H        1.40307756       0.81006721      20.00000000        3       1.00000000       0.00000000       0.00000000       0.00000000       0.00000000       0.00000000       0.00000000
H        4.20923268       0.81006721      20.00000000        3       1.00000000       0.00000000       0.00000000       0.00000000       0.00000000       0.00000000       0.00000000
H        0.00000000       3.24026883      20.00000000        3       1.00000000       0.00000000       0.00000000       0.00000000       0.00000000       0.00000000       0.00000000
H        2.80615512       3.24026883      20.00000000        3       1.00000000       0.00000000       0.00000000       0.00000000       0.00000000       0.00000000       0.00000000
H        0.00000000       1.62013441      22.29121606        2       1.00000000       0.00000000       0.00000000       0.00000000       0.00000000       0.00000000       0.00000000
H        2.80615512       1.62013441      22.29121606        2       1.00000000       0.00000000       0.00000000       0.00000000       0.00000000       0.00000000       0.00000000
H        1.40307756       4.05033604      22.29121606        2       1.00000000       0.00000000       0.00000000       0.00000000       0.00000000       0.00000000       0.00000000
H        4.20923268       4.05033604      22.29121606        2       1.00000000       0.00000000       0.00000000       0.00000000       0.00000000       0.00000000       0.00000000
H        0.00000000       0.00000000      24.58243212        1       1.00000000       0.00000000       0.00000000       0.00000000       0.00000000       0.00000000       0.00000000
H        2.80615512       0.00000000      24.58243212        1       1.00000000       0.00000000       0.00000000       0.00000000       0.00000000       0.00000000       0.00000000
H        1.40307756       2.43020162      24.58243212        1       1.00000000       0.00000000       0.00000000       0.00000000       0.00000000       0.00000000       0.00000000
H        4.20923268       2.43020162      24.58243212        1       1.00000000       0.00000000       0.00000000       0.00000000       0.00000000       0.00000000       0.00000000
H        4.20893525       4.04894749      26.79076240        0       1.00000000       0.00082502       0.00135823       0.00056444      -0.00480451      -0.00130481      -0.00291473
H        5.61170036      -0.00115498      29.01590825        0       1.00000000       0.00055150       0.00118316      -0.00037948       0.00103234       0.00099029       0.00209300
H        5.61256766       1.61953315      26.79074725        0       1.00000000       0.00010529      -0.00143847       0.00033802      -0.00043760       0.00028427      -0.00069264
H        2.80640491       4.86064512      29.01591932        0       1.00000000       0.00019027      -0.00076323       0.00015655      -0.00107715       0.00153176      -0.00056462
H        1.40290796       4.05007007      26.79093675        0       1.00000000      -0.00015567      -0.00004390      -0.00010004       0.00306574       0.00140882      -0.00231175
H        2.80551693       1.61884156      26.78989239        0       1.00000000      -0.00084306      -0.00182937       0.00023066      -0.00026298      -0.00079741       0.00181052
H        1.40250898       2.42995735      29.01629678        0       1.00000000       0.00140081       0.00007090       0.00048274       0.00330778      -0.00195901       0.00126464
H        4.20831826       2.42981131      29.01636252        0       1.00000000      -0.00040740      -0.00002110       0.00068554      -0.00286006      -0.00115955      -0.00034047
20
Lattice="5.612310241546866 0.0 0.0 0.0 4.860403243099165 0.0 0.0 0.0 44.58243212332868" Properties=species:S:1:pos:R:3:tags:I:1:masses:R:1:momenta:R:3:forces:R:3 KEmax=25.851991011651638 iter=95776 volume=1216.1236359717223 set_wall=T ns_energy=-13.635828663735426 last_walked_iter_clone=95691 energy=-13.635841132841847 stress="0.025353365673198947 -1.102507567073263e-05 1.4679779570308453e-05 -1.102507567073263e-05 0.025357202270885174 1.4419970005093664e-05 1.4679779570308453e-05 1.4419970005093664e-05 0.011556651447864818" pbc="T T F"
H        1.40307756       0.81006721      20.00000000        3       1.00000000       0.00000000       0.00000000       0.00000000       0.00000000       0.00000000       0.00000000
H        4.20923268       0.81006721      20.00000000        3       1.00000000       0.00000000       0.00000000       0.00000000       0.00000000       0.00000000       0.00000000
H        0.00000000       3.24026883      20.00000000        3       1.00000000       0.00000000       0.00000000       0.00000000       0.00000000       0.00000000       0.00000000
H        2.80615512       3.24026883      20.00000000        3       1.00000000       0.00000000       0.00000000       0.00000000       0.00000000       0.00000000       0.00000000
H        0.00000000       1.62013441      22.29121606        2       1.00000000       0.00000000       0.00000000       0.00000000       0.00000000       0.00000000       0.00000000
H        2.80615512       1.62013441      22.29121606        2       1.00000000       0.00000000       0.00000000       0.00000000       0.00000000       0.00000000       0.00000000
H        1.40307756       4.05033604      22.29121606        2       1.00000000       0.00000000       0.00000000       0.00000000       0.00000000       0.00000000       0.00000000
H        4.20923268       4.05033604      22.29121606        2       1.00000000       0.00000000       0.00000000       0.00000000       0.00000000       0.00000000       0.00000000
H        0.00000000       0.00000000      24.58243212        1       1.00000000       0.00000000       0.00000000       0.00000000       0.00000000       0.00000000       0.00000000
H        2.80615512       0.00000000      24.58243212        1       1.00000000       0.00000000       0.00000000       0.00000000       0.00000000       0.00000000       0.00000000
H        1.40307756       2.43020162      24.58243212        1       1.00000000       0.00000000       0.00000000       0.00000000       0.00000000       0.00000000       0.00000000
H        4.20923268       2.43020162      24.58243212        1       1.00000000       0.00000000       0.00000000       0.00000000       0.00000000       0.00000000       0.00000000
H        4.20942241       4.05007329      26.79169835        0       1.00000000       0.00049738       0.00006749      -0.00031815      -0.00480451      -0.00130481      -0.00291473
H        5.61126792      -0.00066036      29.01754984        0       1.00000000       0.00137508      -0.00018270      -0.00019999       0.00103234       0.00099029       0.00209300
H        5.61217366       1.62004824      26.79192360        0       1.00000000       0.00069949       0.00041520       0.00059984      -0.00043760       0.00028427      -0.00069264
H        2.80617290      -0.00121747      29.01845484        0       1.00000000       0.00184822      -0.00086006      -0.00192502      -0.00107715       0.00153176      -0.00056462
H        1.40297938       4.05072813      26.79079051        0       1.00000000      -0.00070307       0.00102763      -0.00033387       0.00306574       0.00140882      -0.00231175
H        2.80608260       1.61977848      26.79159760        0       1.00000000       0.00094347      -0.00051476       0.00047359      -0.00026298      -0.00079741       0.00181052
H        1.40307665       2.42941893      29.01786644        0       1.00000000       0.00025087      -0.00067016       0.00177916       0.00330778      -0.00195901       0.00126464
H        4.20798815       2.42967844      29.01792657        0       1.00000000       0.00033443      -0.00042520      -0.00189861      -0.00286006      -0.00115955      -0.00034047
20
Lattice="5.612310241546866 0.0 0.0 0.0 4.860403243099165 0.0 0.0 0.0 44.58243212332868" Properties=species:S:1:pos:R:3:tags:I:1:masses:R:1:momenta:R:3:forces:R:3 KEmax=25.851991011651638 iter=95776 volume=1216.1236359717223 set_wall=T ns_energy=-13.635829181805097 last_walked_iter_clone=95662 energy=-13.635841132841847 stress="0.025353365673198947 -1.102507567073263e-05 1.4679779570308453e-05 -1.102507567073263e-05 0.025357202270885174 1.4419970005093664e-05 1.4679779570308453e-05 1.4419970005093664e-05 0.011556651447864818" pbc="T T F"
H        1.40307756       0.81006721      20.00000000        3       1.00000000       0.00000000       0.00000000       0.00000000       0.00000000       0.00000000       0.00000000
H        4.20923268       0.81006721      20.00000000        3       1.00000000       0.00000000       0.00000000       0.00000000       0.00000000       0.00000000       0.00000000
H        0.00000000       3.24026883      20.00000000        3       1.00000000       0.00000000       0.00000000       0.00000000       0.00000000       0.00000000       0.00000000
H        2.80615512       3.24026883      20.00000000        3       1.00000000       0.00000000       0.00000000       0.00000000       0.00000000       0.00000000       0.00000000
H        0.00000000       1.62013441      22.29121606        2       1.00000000       0.00000000       0.00000000       0.00000000       0.00000000       0.00000000       0.00000000
H        2.80615512       1.62013441      22.29121606        2       1.00000000       0.00000000       0.00000000       0.00000000       0.00000000       0.00000000       0.00000000
H        1.40307756       4.05033604      22.29121606        2       1.00000000       0.00000000       0.00000000       0.00000000       0.00000000       0.00000000       0.00000000
H        4.20923268       4.05033604      22.29121606        2       1.00000000       0.00000000       0.00000000       0.00000000       0.00000000       0.00000000       0.00000000
H        0.00000000       0.00000000      24.58243212        1       1.00000000       0.00000000       0.00000000       0.00000000       0.00000000       0.00000000       0.00000000
H        2.80615512       0.00000000      24.58243212        1       1.00000000       0.00000000       0.00000000       0.00000000       0.00000000       0.00000000       0.00000000
H        1.40307756       2.43020162      24.58243212        1       1.00000000       0.00000000       0.00000000       0.00000000       0.00000000       0.00000000       0.00000000
H        4.20923268       2.43020162      24.58243212        1       1.00000000       0.00000000       0.00000000       0.00000000       0.00000000       0.00000000       0.00000000
H        4.20965285       4.05050880      26.79062711        0       1.00000000       0.00086054      -0.00224079       0.00011484      -0.00480451      -0.00130481      -0.00291473
H        0.00026249      -0.00077012      29.01691490        0       1.00000000      -0.00202470       0.00106042      -0.00074309       0.00103234       0.00099029       0.00209300
H        5.61319537       1.62002085      26.79058593        0       1.00000000       0.00088025       0.00072248       0.00144453      -0.00043760       0.00028427      -0.00069264
H        2.80590460       0.00014815      29.01722582        0       1.00000000       0.00088616      -0.00062668      -0.00172386      -0.00107715       0.00153176      -0.00056462
H        1.40323330       4.05034928      26.79069677        0       1.00000000       0.00003243      -0.00117883       0.00016904       0.00306574       0.00140882      -0.00231175
H        2.80638995       1.62142616      26.79024699        0       1.00000000       0.00034399      -0.00059284       0.00034139      -0.00026298      -0.00079741       0.00181052
H        1.40352069       2.43001790      29.01742309        0       1.00000000      -0.00031490      -0.00036660       0.00017769       0.00330778      -0.00195901       0.00126464
H        4.20959743       2.42925093      29.01562661        0       1.00000000      -0.00065596      -0.00039512       0.00059883      -0.00286006      -0.00115955      -0.00034047
20
Lattice="5.612310241546866 0.0 0.0 0.0 4.860403243099165 0.0 0.0 0.0 44.58243212332868" Properties=species:S:1:pos:R:3:tags:I:1:masses:R:1:momenta:R:3:forces:R:3 KEmax=25.851991011651638 iter=95776 volume=1216.1236359717223 set_wall=T ns_energy=-13.635828633921747 last_walked_iter_clone=95556 energy=-13.635841132841847 stress="0.025353365673198947 -1.102507567073263e-05 1.4679779570308453e-05 -1.102507567073263e-05 0.025357202270885174 1.4419970005093664e-05 1.4679779570308453e-05 1.4419970005093664e-05 0.011556651447864818" pbc="T T F"
H        1.40307756       0.81006721      20.00000000        3       1.00000000       0.00000000       0.00000000       0.00000000       0.00000000       0.00000000       0.00000000
H        4.20923268       0.81006721      20.00000000        3       1.00000000       0.00000000       0.00000000       0.00000000       0.00000000       0.00000000       0.00000000
H        0.00000000       3.24026883      20.00000000        3       1.00000000       0.00000000       0.00000000       0.00000000       0.00000000       0.00000000       0.00000000
H        2.80615512       3.24026883      20.00000000        3       1.00000000       0.00000000       0.00000000       0.00000000       0.00000000       0.00000000       0.00000000
H        0.00000000       1.62013441      22.29121606        2       1.00000000       0.00000000       0.00000000       0.00000000       0.00000000       0.00000000       0.00000000
H        2.80615512       1.62013441      22.29121606        2       1.00000000       0.00000000       0.00000000       0.00000000       0.00000000       0.00000000       0.00000000
H        1.40307756       4.05033604      22.29121606        2       1.00000000       0.00000000       0.00000000       0.00000000       0.00000000       0.00000000       0.00000000
H        4.20923268       4.05033604      22.29121606        2       1.00000000       0.00000000       0.00000000       0.00000000       0.00000000       0.00000000       0.00000000
H        0.00000000       0.00000000      24.58243212        1       1.00000000       0.00000000       0.00000000       0.00000000       0.00000000       0.00000000       0.00000000
H        2.80615512       0.00000000      24.58243212        1       1.00000000       0.00000000       0.00000000       0.00000000       0.00000000       0.00000000       0.00000000
H        1.40307756       2.43020162      24.58243212        1       1.00000000       0.00000000       0.00000000       0.00000000       0.00000000       0.00000000       0.00000000
H        4.20923268       2.43020162      24.58243212        1       1.00000000       0.00000000       0.00000000       0.00000000       0.00000000       0.00000000       0.00000000
H        4.21029762       4.04954009      26.79104717        0       1.00000000      -0.00074968       0.00068297      -0.00009666      -0.00480451      -0.00130481      -0.00291473
H       -0.00037438       0.00029677      29.01839809        0       1.00000000       0.00228718      -0.00029815       0.00064243       0.00103234       0.00099029       0.00209300
H       -0.00030930       1.61960493      26.79143570        0       1.00000000      -0.00045311      -0.00055094      -0.00034195      -0.00043760       0.00028427      -0.00069264
H        2.80545829      -0.00075149      29.01731866        0       1.00000000      -0.00127305      -0.00013155      -0.00044962      -0.00107715       0.00153176      -0.00056462
H        1.40320013       4.05002234      26.79079919        0       1.00000000      -0.00008969       0.00090110      -0.00037655       0.00306574       0.00140882      -0.00231175
H        2.80589611       1.61966125      26.79116432        0       1.00000000       0.00001654       0.00103903      -0.00043271      -0.00026298      -0.00079741       0.00181052
H        1.40255663       2.42980974      29.01624949        0       1.00000000      -0.00197663      -0.00134714       0.00031702       0.00330778      -0.00195901       0.00126464
H        4.20855370       2.42960489      29.01621193        0       1.00000000      -0.00050021      -0.00072463      -0.00178268      -0.00286006      -0.00115955      -0.00034047
20
Lattice="5.612310241546866 0.0 0.0 0.0 4.860403243099165 0.0 0.0 0.0 44.58243212332868" Properties=species:S:1:pos:R:3:tags:I:1:masses:R:1:momenta:R:3:forces:R:3 KEmax=25.851991011651638 iter=95776 volume=1216.1236359717223 set_wall=T ns_energy=-13.635828630947188 last_walked_iter_clone=95621 energy=-13.635841132841847 stress="0.025353365673198947 -1.102507567073263e-05 1.4679779570308453e-05 -1.102507567073263e-05 0.025357202270885174 1.4419970005093664e-05 1.4679779570308453e-05 1.4419970005093664e-05 0.011556651447864818" pbc="T T F"
H        1.40307756       0.81006721      20.00000000        3       1.00000000       0.00000000       0.00000000       0.00000000       0.00000000       0.00000000       0.00000000
H        4.20923268       0.81006721      20.00000000        3       1.00000000       0.00000000       0.00000000       0.00000000       0.00000000       0.00000000       0.00000000
H        0.00000000       3.24026883      20.00000000        3       1.00000000       0.00000000       0.00000000       0.00000000       0.00000000       0.00000000       0.00000000
H        2.80615512       3.24026883      20.00000000        3       1.00000000       0.00000000       0.00000000       0.00000000       0.00000000       0.00000000       0.00000000
H        0.00000000       1.62013441      22.29121606        2       1.00000000       0.00000000       0.00000000       0.00000000       0.00000000       0.00000000       0.00000000
H        2.80615512       1.62013441      22.29121606        2       1.00000000       0.00000000       0.00000000       0.00000000       0.00000000       0.00000000       0.00000000
H        1.40307756       4.05033604      22.29121606        2       1.00000000       0.00000000       0.00000000       0.00000000       0.00000000       0.00000000       0.00000000
H        4.20923268       4.05033604      22.29121606        2       1.00000000       0.00000000       0.00000000       0.00000000       0.00000000       0.00000000       0.00000000
H        0.00000000       0.00000000      24.58243212        1       1.00000000       0.00000000       0.00000000       0.00000000       0.00000000       0.00000000       0.00000000
H        2.80615512       0.00000000      24.58243212        1       1.00000000       0.00000000       0.00000000       0.00000000       0.00000000       0.00000000       0.00000000
H        1.40307756       2.43020162      24.58243212        1       1.00000000       0.00000000       0.00000000       0.00000000       0.00000000       0.00000000       0.00000000
H        4.20923268       2.43020162      24.58243212        1       1.00000000       0.00000000       0.00000000       0.00000000       0.00000000       0.00000000       0.00000000
H        4.20812541       4.05013104      26.79077314        0       1.00000000      -0.00059480      -0.00021565       0.00010235      -0.00480451      -0.00130481      -0.00291473
H       -0.00149171      -0.00012676      29.01751752        0       1.00000000      -0.00070233       0.00018900      -0.00106411       0.00103234       0.00099029       0.00209300
H        5.61089483       1.61973136      26.79068129        0       1.00000000       0.00082221       0.00201918       0.00103670      -0.00043760       0.00028427      -0.00069264
H        2.80502239       4.86045784      29.01791235        0       1.00000000      -0.00101876       0.00225407      -0.00121161      -0.00107715       0.00153176      -0.00056462
H        1.40292476       4.04969315      26.79091320        0       1.00000000       0.00001210      -0.00184101      -0.00083828       0.00306574       0.00140882      -0.00231175
H        2.80591663       1.62017136      26.79081389        0       1.00000000       0.00095258      -0.00142313      -0.00048996      -0.00026298      -0.00079741       0.00181052
H        1.40296137       2.43030431      29.01679500        0       1.00000000       0.00031806      -0.00052315       0.00053480       0.00330778      -0.00195901       0.00126464
H        4.20948503       2.43035312      29.01765127        0       1.00000000       0.00034375      -0.00068965       0.00078815      -0.00286006      -0.00115955      -0.00034047
20
Lattice="5.612310241546866 0.0 0.0 0.0 4.860403243099165 0.0 0.0 0.0 44.58243212332868" Properties=species:S:1:pos:R:3:tags:I:1:masses:R:1:momenta:R:3:forces:R:3 KEmax=25.851991011651638 iter=95776 volume=1216.1236359717223 set_wall=T ns_energy=-13.63582934414866 last_walked_iter_clone=95749 energy=-13.635841132841847 stress="0.025353365673198947 -1.102507567073263e-05 1.4679779570308453e-05 -1.102507567073263e-05 0.025357202270885174 1.4419970005093664e-05 1.4679779570308453e-05 1.4419970005093664e-05 0.011556651447864818" pbc="T T F"