20
Lattice="5.612310241546866 0.0 0.0 0.0 4.860403243099165 0.0 0.0 0.0 44.58243212332868" Properties=species:S:1:pos:R:3:tags:I:1:masses:R:1:momenta:R:3 KEmax=25.851991011651638 iter=99 volume=1216.1236359717223 set_wall=T ns_energy=2839.60631570011 ns_P=0.0 config_n_global=99 ns_KE=11.44710976419908 pbc="T T F"
H        1.40307756       0.81006721      20.00000000        3       1.00000000       0.00000000       0.00000000       0.00000000
H        4.20923268       0.81006721      20.00000000        3       1.00000000       0.00000000       0.00000000       0.00000000
H        0.00000000       3.24026883      20.00000000        3       1.00000000       0.00000000       0.00000000       0.00000000
H        2.80615512       3.24026883      20.00000000        3       1.00000000       0.00000000       0.00000000       0.00000000
H        0.00000000       1.62013441      22.29121606        2       1.00000000       0.00000000       0.00000000       0.00000000
H        2.80615512       1.62013441      22.29121606        2       1.00000000       0.00000000       0.00000000       0.00000000
H        1.40307756       4.05033604      22.29121606        2       1.00000000       0.00000000       0.00000000       0.00000000
H        4.20923268       4.05033604      22.29121606        2       1.00000000       0.00000000       0.00000000       0.00000000
H        0.00000000       0.00000000      24.58243212        1       1.00000000       0.00000000       0.00000000       0.00000000
H        2.80615512       0.00000000      24.58243212        1       1.00000000       0.00000000       0.00000000       0.00000000
H        1.40307756       2.43020162      24.58243212        1       1.00000000       0.00000000       0.00000000       0.00000000
H        4.20923268       2.43020162      24.58243212        1       1.00000000       0.00000000       0.00000000       0.00000000
H        2.72265641       4.18114173      39.03493779        0       1.00000000      -0.48678293      -0.03576841       0.69327107
H        4.79629211       3.77828810      36.07293423        0       1.00000000       1.50911280      -1.01964872       0.54698087
H        1.33359445       2.03436469      31.21064258        0       1.00000000       0.05251545       0.22796140       1.55289720
H        2.78391737       0.64129120      36.70646865        0       1.00000000      -0.72249304      -0.16938486      -1.90804832
H        0.08013693       4.06845772      27.71919611        0       1.00000000       0.02216463       1.09147100       0.75777189
H        0.81415332       4.56234691      40.42323888        0       1.00000000      -1.73254921      -0.60137826      -0.06569862
H        0.58556811       3.49048373      39.95176994        0       1.00000000       0.64270990       1.68169850       0.63758739
H        1.13936712       1.35014444      33.10375220        0       1.00000000      -0.40135727       1.69317527      -0.30358508
20
Lattice="5.612310241546866 0.0 0.0 0.0 4.860403243099165 0.0 0.0 0.0 44.58243212332868" Properties=species:S:1:pos:R:3:tags:I:1:masses:R:1:momenta:R:3 KEmax=25.851991011651638 iter=199 volume=1216.1236359717223 set_wall=T ns_energy=296.97976248204293 ns_P=0.0 config_n_global=199 ns_KE=9.250585662863175 pbc="T T F"
H        1.40307756       0.81006721      20.00000000        3       1.00000000       0.00000000       0.00000000       0.00000000
H        4.20923268       0.81006721      20.00000000        3       1.00000000       0.00000000       0.00000000       0.00000000
H        0.00000000       3.24026883      20.00000000        3       1.00000000       0.00000000       0.00000000       0.00000000
H        2.80615512       3.24026883      20.00000000        3       1.00000000       0.00000000       0.00000000       0.00000000
H        0.00000000       1.62013441      22.29121606        2       1.00000000       0.00000000       0.00000000       0.00000000
H        2.80615512       1.62013441      22.29121606        2       1.00000000       0.00000000       0.00000000       0.00000000
H        1.40307756       4.05033604      22.29121606        2       1.00000000       0.00000000       0.00000000       0.00000000
H        4.20923268       4.05033604      22.29121606        2       1.00000000       0.00000000       0.00000000       0.00000000
H        0.00000000       0.00000000      24.58243212        1       1.00000000       0.00000000       0.00000000       0.00000000
H        2.80615512       0.00000000      24.58243212        1       1.00000000       0.00000000       0.00000000       0.00000000
H        1.40307756       2.43020162      24.58243212        1       1.00000000       0.00000000       0.00000000       0.00000000
H        4.20923268       2.43020162      24.58243212        1       1.00000000       0.00000000       0.00000000       0.00000000
H        3.63839548       0.77610249      41.32236788        0       1.00000000       0.12886921       0.08159471      -0.36839683
H        4.76552862       4.27282035      36.64663554        0       1.00000000      -0.40203003       0.72982640       0.01315422
H        3.97733077       3.55410874      34.39122435        0       1.00000000       1.34239850      -1.19199369       0.12453069
H        3.89442240       2.66918935      31.53602890        0       1.00000000       0.76761333      -0.19570104       0.43140580
H        2.15280748       2.11521068      34.87880705        0       1.00000000      -1.17053408       0.43537728      -0.79321719
H        3.71257730       2.60830874      32.98785251        0       1.00000000      -0.83911709      -2.19171377       0.48583071
H        1.23303176       3.37803967      35.69240775        0       1.00000000      -0.03310901      -0.38028075       1.65192921
H        0.52885376       1.86530693      33.72334794        0       1.00000000      -0.99365710       0.27387564       1.31381677
20
Lattice="5.612310241546866 0.0 0.0 0.0 4.860403243099165 0.0 0.0 0.0 44.58243212332868" Properties=species:S:1:pos:R:3:tags:I:1:masses:R:1:momenta:R:3 KEmax=25.851991011651638 iter=299 volume=1216.1236359717223 set_wall=T ns_energy=59.29580365976949 last_walked_iter_clone=235 ns_P=0.0 config_n_global=299 ns_KE=24.639633939555843 pbc="T T F"
H        1.40307756       0.81006721      20.00000000        3       1.00000000       0.00000000       0.00000000       0.00000000
H        4.20923268       0.81006721      20.00000000        3       1.00000000       0.00000000       0.00000000       0.00000000
H        0.00000000       3.24026883      20.00000000        3       1.00000000       0.00000000       0.00000000       0.00000000
H        2.80615512       3.24026883      20.00000000        3       1.00000000       0.00000000       0.00000000       0.00000000
H        0.00000000       1.62013441      22.29121606        2       1.00000000       0.00000000       0.00000000       0.00000000
H        2.80615512       1.62013441      22.29121606        2       1.00000000       0.00000000       0.00000000       0.00000000
H        1.40307756       4.05033604      22.29121606        2       1.00000000       0.00000000       0.00000000       0.00000000
H        4.20923268       4.05033604      22.29121606        2       1.00000000       0.00000000       0.00000000       0.00000000
H        0.00000000       0.00000000      24.58243212        1       1.00000000       0.00000000       0.00000000       0.00000000
H        2.80615512       0.00000000      24.58243212        1       1.00000000       0.00000000       0.00000000       0.00000000
H        1.40307756       2.43020162      24.58243212        1       1.00000000       0.00000000       0.00000000       0.00000000
H        4.20923268       2.43020162      24.58243212        1       1.00000000       0.00000000       0.00000000       0.00000000
H        0.56396473       4.74106877      36.69900780        0       1.00000000      -0.34456995      -1.92172618      -1.47619495
H        4.27748727       3.08842633      40.12626006        0       1.00000000      -0.38738347       1.61474513      -2.58757379
H        1.70887318       4.42972052      35.32221204        0       1.00000000       0.55166028       1.35574768       1.24236487
H        1.81760576       4.39884317      30.50884658        0       1.00000000       3.62096998       0.41815968       0.77192477
H        0.76142160       2.67255845      36.20566170        0       1.00000000       0.30453214      -0.96860304       0.86048860
H        2.67942254       3.90580141      41.35017699        0       1.00000000       2.32218958       0.67333884       0.74836669
H        3.34372542       0.30786201      36.37017395        0       1.00000000       0.08883603      -1.52582874      -0.12875548
H        1.09305755       4.29218689      40.64899852        0       1.00000000      -2.26580468      -0.55098267       0.54763089
20
Lattice="5.612310241546866 0.0 0.0 0.0 4.860403243099165 0.0 0.0 0.0 44.58243212332868" Properties=species:S:1:pos:R:3:tags:I:1:masses:R:1:momenta:R:3 KEmax=25.851991011651638 iter=399 volume=1216.1236359717223 set_wall=T ns_energy=20.157754638377625 last_walked_iter_clone=58 ns_P=0.0 config_n_global=399 ns_KE=22.35173755249194 pbc="T T F"
H        1.40307756       0.81006721      20.00000000        3       1.00000000       0.00000000       0.00000000       0.00000000
H        4.20923268       0.81006721      20.00000000        3       1.00000000       0.00000000       0.00000000       0.00000000
H        0.00000000       3.24026883      20.00000000        3       1.00000000       0.00000000       0.00000000       0.00000000
H        2.80615512       3.24026883      20.00000000        3       1.00000000       0.00000000       0.00000000       0.00000000
H        0.00000000       1.62013441      22.29121606        2       1.00000000       0.00000000       0.00000000       0.00000000
H        2.80615512       1.62013441      22.29121606        2       1.00000000       0.00000000       0.00000000       0.00000000
H        1.40307756       4.05033604      22.29121606        2       1.00000000       0.00000000       0.00000000       0.00000000
H        4.20923268       4.05033604      22.29121606        2       1.00000000       0.00000000       0.00000000       0.00000000
H        0.00000000       0.00000000      24.58243212        1       1.00000000       0.00000000       0.00000000       0.00000000
H        2.80615512       0.00000000      24.58243212        1       1.00000000       0.00000000       0.00000000       0.00000000
H        1.40307756       2.43020162      24.58243212        1       1.00000000       0.00000000       0.00000000       0.00000000
H        4.20923268       2.43020162      24.58243212        1       1.00000000       0.00000000       0.00000000       0.00000000
H        3.70031246       3.72032954      28.42455630        0       1.00000000      -2.29613758       1.50162265       3.05268450
H        3.53133342       2.84372491      39.72923379        0       1.00000000       0.64728870       0.29137011       0.45688924
H        1.05621932       0.30517421      34.46792465        0       1.00000000       1.16772533       0.25898350       0.56472550
H        0.63734830       3.34704396      27.90619068        0       1.00000000       0.00154130      -3.43904441       0.84419229
H        4.60969713       0.08766634      34.09357243        0       1.00000000      -1.15469985       2.10511529      -0.87697224
H        5.51200485       0.35753529      27.94543301        0       1.00000000      -1.30723449       0.07919623       0.52151372
H        2.85321272       0.92911522      32.68263231        0       1.00000000      -0.38192299      -0.81268110       0.29225039
H        1.82388394       0.03033631      41.54840150        0       1.00000000       0.98001410      -1.42978667      -0.66189971
20
Lattice="5.612310241546866 0.0 0.0 0.0 4.860403243099165 0.0 0.0 0.0 44.58243212332868" Properties=species:S:1:pos:R:3:tags:I:1:masses:R:1:momenta:R:3 KEmax=25.851991011651638 iter=499 volume=1216.1236359717223 set_wall=T ns_energy=16.991787245336983 last_walked_iter_clone=271 ns_P=0.0 config_n_global=499 ns_KE=25.010430927599614 pbc="T T F"
H        1.40307756       0.81006721      20.00000000        3       1.00000000       0.00000000       0.00000000       0.00000000
H        4.20923268       0.81006721      20.00000000        3       1.00000000       0.00000000       0.00000000       0.00000000
H        0.00000000       3.24026883      20.00000000        3       1.00000000       0.00000000       0.00000000       0.00000000
H        2.80615512       3.24026883      20.00000000        3       1.00000000       0.00000000       0.00000000       0.00000000
H        0.00000000       1.62013441      22.29121606        2       1.00000000       0.00000000       0.00000000       0.00000000
H        2.80615512       1.62013441      22.29121606        2       1.00000000       0.00000000       0.00000000       0.00000000
H        1.40307756       4.05033604      22.29121606        2       1.00000000       0.00000000       0.00000000       0.00000000
H        4.20923268       4.05033604      22.29121606        2       1.00000000       0.00000000       0.00000000       0.00000000
H        0.00000000       0.00000000      24.58243212        1       1.00000000       0.00000000       0.00000000       0.00000000
H        2.80615512       0.00000000      24.58243212        1       1.00000000       0.00000000       0.00000000       0.00000000
H        1.40307756       2.43020162      24.58243212        1       1.00000000       0.00000000       0.00000000       0.00000000
H        4.20923268       2.43020162      24.58243212        1       1.00000000       0.00000000       0.00000000       0.00000000
H        3.61415979       2.74762613      28.95605102        0       1.00000000       0.69258602       0.13734109       1.11700511
H        1.53007272       3.50645088      33.70858816        0       1.00000000      -0.22967913       0.39923014       3.82438979
H        1.93292571       1.93297948      41.99924003        0       1.00000000       0.93442556      -2.66261010       1.30335998
H        2.95375768       4.28118642      42.26741233        0       1.00000000       0.33405066      -1.05577709       0.49150964
H        2.01578144       2.26437063      31.19785186        0       1.00000000      -1.37286053       0.44844456      -0.69564385
H        0.44928099       4.23657125      29.72269836        0       1.00000000      -0.78029239      -0.72529481      -2.33762089
H        2.16820104       0.71460354      29.24633258        0       1.00000000      -0.12562164      -0.31476169      -2.89356609
H        4.51273354       1.66835719      41.31388913        0       1.00000000       2.01844095       0.53419749       0.53953758
20
Lattice="5.612310241546866 0.0 0.0 0.0 4.860403243099165 0.0 0.0 0.0 44.58243212332868" Properties=species:S:1:pos:R:3:tags:I:1:masses:R:1:momenta:R:3 KEmax=25.851991011651638 iter=599 volume=1216.1236359717223 set_wall=T ns_energy=15.954397797703042 last_walked_iter_clone=515 ns_P=0.0 config_n_global=599 ns_KE=19.960557643374045 pbc="T T F"
H        1.40307756       0.81006721      20.00000000        3       1.00000000       0.00000000       0.00000000       0.00000000
H        4.20923268       0.81006721      20.00000000        3       1.00000000       0.00000000       0.00000000       0.00000000
H        0.00000000       3.24026883      20.00000000        3       1.00000000       0.00000000       0.00000000       0.00000000
H        2.80615512       3.24026883      20.00000000        3       1.00000000       0.00000000       0.00000000       0.00000000
H        0.00000000       1.62013441      22.29121606        2       1.00000000       0.00000000       0.00000000       0.00000000
H        2.80615512       1.62013441      22.29121606        2       1.00000000       0.00000000       0.00000000       0.00000000
H        1.40307756       4.05033604      22.29121606        2       1.00000000       0.00000000       0.00000000       0.00000000
H        4.20923268       4.05033604      22.29121606        2       1.00000000       0.00000000       0.00000000       0.00000000
H        0.00000000       0.00000000      24.58243212        1       1.00000000       0.00000000       0.00000000       0.00000000
H        2.80615512       0.00000000      24.58243212        1       1.00000000       0.00000000       0.00000000       0.00000000
H        1.40307756       2.43020162      24.58243212        1       1.00000000       0.00000000       0.00000000       0.00000000
H        4.20923268       2.43020162      24.58243212        1       1.00000000       0.00000000       0.00000000       0.00000000
H        3.77463779       3.27366251      27.27710440        0       1.00000000      -1.05248639       2.08520644      -0.44740581
H        0.99050941       4.52810016      38.37712966        0       1.00000000      -0.74091971      -0.92135832       2.19575182
H        5.59463318       1.12371293      43.10571397        0       1.00000000       2.73807342       0.79011557       0.37738265
H        3.61935999       3.34591862      30.87444233        0       1.00000000       0.99078092       1.53942466      -1.46360574
H        0.11560711       3.09830772      27.60635842        0       1.00000000      -0.81628755       0.77512552      -0.03707405
H        3.57007281       2.54467914      41.99552784        0       1.00000000       2.26926475      -0.87117843       0.20704582
H        5.09718869       2.25600738      39.58709480        0       1.00000000       0.52669540       1.00478392       1.37310464
H        3.72213529       2.38822798      34.93001771        0       1.00000000      -0.34902928       0.58310287      -1.85322156
20
Lattice="5.612310241546866 0.0 0.0 0.0 4.860403243099165 0.0 0.0 0.0 44.58243212332868" Properties=species:S:1:pos:R:3:tags:I:1:masses:R:1:momenta:R:3 KEmax=25.851991011651638 iter=699 volume=1216.1236359717223 set_wall=T ns_energy=15.059768479365937 last_walked_iter_clone=588 ns_P=0.0 config_n_global=699 ns_KE=23.303358863095603 pbc="T T F"
H        1.40307756       0.81006721      20.00000000        3       1.00000000       0.00000000       0.00000000       0.00000000
H        4.20923268       0.81006721      20.00000000        3       1.00000000       0.00000000       0.00000000       0.00000000
H        0.00000000       3.24026883      20.00000000        3       1.00000000       0.00000000       0.00000000       0.00000000
H        2.80615512       3.24026883      20.00000000        3       1.00000000       0.00000000       0.00000000       0.00000000
H        0.00000000       1.62013441      22.29121606        2       1.00000000       0.00000000       0.00000000       0.00000000
H        2.80615512       1.62013441      22.29121606        2       1.00000000       0.00000000       0.00000000       0.00000000
H        1.40307756       4.05033604      22.29121606        2       1.00000000       0.00000000       0.00000000       0.00000000
H        4.20923268       4.05033604      22.29121606        2       1.00000000       0.00000000       0.00000000       0.00000000
H        0.00000000       0.00000000      24.58243212        1       1.00000000       0.00000000       0.00000000       0.00000000
H        2.80615512       0.00000000      24.58243212        1       1.00000000       0.00000000       0.00000000       0.00000000
H        1.40307756       2.43020162      24.58243212        1       1.00000000       0.00000000       0.00000000       0.00000000
H        4.20923268       2.43020162      24.58243212        1       1.00000000       0.00000000       0.00000000       0.00000000
H        0.33239054       2.80862796      37.34225975        0       1.00000000       1.01800709      -2.78177799      -0.96980593
H        5.96131394       3.96138728      30.36053568        0       1.00000000       2.86674428      -0.34774263      -0.89138770
H        2.42182106       3.67564652      44.28111240        0       1.00000000       0.25582938       0.68559643      -0.92691669
H        3.65111826       0.85756952      30.93680255        0       1.00000000      -3.49750484      -0.04481570       0.01459528
H        4.75728705       1.62666742      28.81314841        0       1.00000000       0.60766833      -0.37481881      -0.89590170
H        0.26647135       1.26254625      26.78803612        0       1.00000000      -0.98858145      -0.84226824       1.79770917
H        4.38891150       2.84088672      41.54670306        0       1.00000000       1.30732402       0.55459472      -1.02016657
H        3.78484091       3.47032507      35.30987305        0       1.00000000       1.56443794       1.53740084       0.17054085
20
Lattice="5.612310241546866 0.0 0.0 0.0 4.860403243099165 0.0 0.0 0.0 44.58243212332868" Properties=species:S:1:pos:R:3:tags:I:1:masses:R:1:momenta:R:3 KEmax=25.851991011651638 iter=799 volume=1216.1236359717223 set_wall=T ns_energy=14.240013965622989 last_walked_iter_clone=709 ns_P=0.0 config_n_global=799 ns_KE=22.94028787487482 pbc="T T F"
H        1.40307756       0.81006721      20.00000000        3       1.00000000       0.00000000       0.00000000       0.00000000
H        4.20923268       0.81006721      20.00000000        3       1.00000000       0.00000000       0.00000000       0.00000000
H        0.00000000       3.24026883      20.00000000        3       1.00000000       0.00000000       0.00000000       0.00000000
H        2.80615512       3.24026883      20.00000000        3       1.00000000       0.00000000       0.00000000       0.00000000
H        0.00000000       1.62013441      22.29121606        2       1.00000000       0.00000000       0.00000000       0.00000000
H        2.80615512       1.62013441      22.29121606        2       1.00000000       0.00000000       0.00000000       0.00000000
H        1.40307756       4.05033604      22.29121606        2       1.00000000       0.00000000       0.00000000       0.00000000
H        4.20923268       4.05033604      22.29121606        2       1.00000000       0.00000000       0.00000000       0.00000000
H        0.00000000       0.00000000      24.58243212        1       1.00000000       0.00000000       0.00000000       0.00000000
H        2.80615512       0.00000000      24.58243212        1       1.00000000       0.00000000       0.00000000       0.00000000
H        1.40307756       2.43020162      24.58243212        1       1.00000000       0.00000000       0.00000000       0.00000000
H        4.20923268       2.43020162      24.58243212        1       1.00000000       0.00000000       0.00000000       0.00000000
H        2.99697542       2.96724373      29.45069719        0       1.00000000       1.60059872      -1.70889569      -0.56243434
H        1.04652916       4.65005010      31.20332058        0       1.00000000      -0.39886433       1.15204520       1.27016257
H        1.89728588       1.39467482      39.53019185        0       1.00000000      -2.88563643       0.77108206      -2.25300148
H        1.89616846       3.44471009      41.77412688        0       1.00000000       2.32539157      -0.26005983      -0.42656302
H        5.18659134       1.20942619      34.07891715        0       1.00000000      -0.70790425       0.19090167      -0.11026731
H        1.32392958       4.83091649      26.94786401        0       1.00000000      -1.97305291       0.05261649      -0.85869716
H        3.39192876       0.16345861      32.40352407        0       1.00000000      -1.02044137      -2.09580423      -2.37898149
H        2.66407925       3.14649991      37.89212315        0       1.00000000       0.15928283       0.56439534      -0.84137681
20
Lattice="5.612310241546866 0.0 0.0 0.0 4.860403243099165 0.0 0.0 0.0 44.58243212332868" Properties=species:S:1:pos:R:3:tags:I:1:masses:R:1:momenta:R:3 KEmax=25.851991011651638 iter=899 volume=1216.1236359717223 set_wall=T ns_energy=13.328856068114646 last_walked_iter_clone=735 ns_P=0.0 config_n_global=899 ns_KE=22.32881693944265 pbc="T T F"
H        1.40307756       0.81006721      20.00000000        3       1.00000000       0.00000000       0.00000000       0.00000000
H        4.20923268       0.81006721      20.00000000        3       1.00000000       0.00000000       0.00000000       0.00000000
H        0.00000000       3.24026883      20.00000000        3       1.00000000       0.00000000       0.00000000       0.00000000
H        2.80615512       3.24026883      20.00000000        3       1.00000000       0.00000000       0.00000000       0.00000000
H        0.00000000       1.62013441      22.29121606        2       1.00000000       0.00000000       0.00000000       0.00000000
H        2.80615512       1.62013441      22.29121606        2       1.00000000       0.00000000       0.00000000       0.00000000
H        1.40307756       4.05033604      22.29121606        2       1.00000000       0.00000000       0.00000000       0.00000000
H        4.20923268       4.05033604      22.29121606        2       1.00000000       0.00000000       0.00000000       0.00000000
H        0.00000000       0.00000000      24.58243212        1       1.00000000       0.00000000       0.00000000       0.00000000
H        2.80615512       0.00000000      24.58243212        1       1.00000000       0.00000000       0.00000000       0.00000000
H        1.40307756       2.43020162      24.58243212        1       1.00000000       0.00000000       0.00000000       0.00000000
H        4.20923268       2.43020162      24.58243212        1       1.00000000       0.00000000       0.00000000       0.00000000
H       -0.06856123       4.63895053      42.02146588        0       1.00000000      -1.59471367       1.29395858      -0.53171814
H        0.47355488       2.81194032      27.78153322        0       1.00000000      -0.52253580      -2.51002891       0.71106458
H        2.72617816       4.53565400      40.98172284        0       1.00000000       1.79741103       0.19348152       1.71700210
H        5.41120665       2.16605021      39.14317561        0       1.00000000      -0.83256548      -0.21031389       0.98772370
H        3.94032510       3.68874406      43.86394059        0       1.00000000       0.57448496      -2.10796100      -1.83418425
H        4.38838928       1.93693015      41.53628501        0       1.00000000      -1.09853248       0.19341167      -0.29240376
H        5.74081124       2.16881784      36.61177158        0       1.00000000       2.08121394      -3.15763005      -0.99010197
H        3.34450539       0.54187838      37.22528917        0       1.00000000       0.39460313       0.42429969      -0.25255837
20
Lattice="5.612310241546866 0.0 0.0 0.0 4.860403243099165 0.0 0.0 0.0 44.58243212332868" Properties=species:S:1:pos:R:3:tags:I:1:masses:R:1:momenta:R:3 KEmax=25.851991011651638 iter=999 volume=1216.1236359717223 set_wall=T ns_energy=12.59987692709989 last_walked_iter_clone=727 ns_P=0.0 config_n_global=999 ns_KE=19.728010069979472 pbc="T T F"
H        1.40307756       0.81006721      20.00000000        3       1.00000000       0.00000000       0.00000000       0.00000000
H        4.20923268       0.81006721      20.00000000        3       1.00000000       0.00000000       0.00000000       0.00000000
H        0.00000000       3.24026883      20.00000000        3       1.00000000       0.00000000       0.00000000       0.00000000
H        2.80615512       3.24026883      20.00000000        3       1.00000000       0.00000000       0.00000000       0.00000000
H        0.00000000       1.62013441      22.29121606        2       1.00000000       0.00000000       0.00000000       0.00000000
H        2.80615512       1.62013441      22.29121606        2       1.00000000       0.00000000       0.00000000       0.00000000
H        1.40307756       4.05033604      22.29121606        2       1.00000000       0.00000000       0.00000000       0.00000000
H        4.20923268       4.05033604      22.29121606        2       1.00000000       0.00000000       0.00000000       0.00000000
H        0.00000000       0.00000000      24.58243212        1       1.00000000       0.00000000       0.00000000       0.00000000
H        2.80615512       0.00000000      24.58243212        1       1.00000000       0.00000000       0.00000000       0.00000000
H        1.40307756       2.43020162      24.58243212        1       1.00000000       0.00000000       0.00000000       0.00000000
H        4.20923268       2.43020162      24.58243212        1       1.00000000       0.00000000       0.00000000       0.00000000
H        3.65326637       5.04810610      41.16681127        0       1.00000000      -1.94450518      -1.03363176      -0.45444204
H        0.15329725       4.65564129      26.78502540        0       1.00000000       0.62943741      -2.61522740      -1.48919508
H        2.69496608       0.64609734      29.57109457        0       1.00000000      -0.03959704       1.26693078       0.60602527
H        5.24734412       0.79776248      38.89584460        0       1.00000000       0.60569688      -1.60310243       0.31450113
H        3.52756660       1.87356178      37.84944179        0       1.00000000      -1.28253356       1.31964701      -1.24554137
H        1.10082312       2.23355235      26.96798502        0       1.00000000      -2.00052872      -0.00155780      -0.03953663
H        2.79578625       2.47771397      32.65003400        0       1.00000000       2.90790282       0.70808433      -0.67104800
H        4.52535908       4.17915173      32.53275823        0       1.00000000       1.08873546      -0.63238455       0.05269897
20
Lattice="5.612310241546866 0.0 0.0 0.0 4.860403243099165 0.0 0.0 0.0 44.58243212332868" Properties=species:S:1:pos:R:3:tags:I:1:masses:R:1:momenta:R:3 KEmax=25.851991011651638 iter=1099 volume=1216.1236359717223 set_wall=T ns_energy=11.797588714600783 last_walked_iter_clone=975 ns_P=0.0 config_n_global=1099 ns_KE=20.29247851775377 pbc="T T F"