20
Lattice="5.612310241546866 0.0 0.0 0.0 4.860403243099165 0.0 0.0 0.0 44.58243212332868" Properties=species:S:1:pos:R:3:tags:I:1:masses:R:1:momenta:R:3:forces:R:3 KEmax=25.851991011651638 iter=52298 volume=1216.1236359717223 set_wall=T ns_energy=-13.617603374465267 last_walked_iter_clone=52264 energy=-13.624262607728808 stress="0.025191298088802022 0.00014468810023771688 -0.00032837106842229544 0.00014468810023771688 0.0245867381948823 0.0003984516975552073 -0.00032837106842229544 0.0003984516975552073 0.010540005085777971" pbc="T T F"
H        1.40307756       0.81006721      20.00000000        3       1.00000000       0.00000000       0.00000000       0.00000000       0.00000000       0.00000000       0.00000000
H        4.20923268       0.81006721      20.00000000        3       1.00000000       0.00000000       0.00000000       0.00000000       0.00000000       0.00000000       0.00000000
H        0.00000000       3.24026883      20.00000000        3       1.00000000       0.00000000       0.00000000       0.00000000       0.00000000       0.00000000       0.00000000
H        2.80615512       3.24026883      20.00000000        3       1.00000000       0.00000000       0.00000000       0.00000000       0.00000000       0.00000000       0.00000000
H        0.00000000       1.62013441      22.29121606        2       1.00000000       0.00000000       0.00000000       0.00000000       0.00000000       0.00000000       0.00000000
H        2.80615512       1.62013441      22.29121606        2       1.00000000       0.00000000       0.00000000       0.00000000       0.00000000       0.00000000       0.00000000
H        1.40307756       4.05033604      22.29121606        2       1.00000000       0.00000000       0.00000000       0.00000000       0.00000000       0.00000000       0.00000000
H        4.20923268       4.05033604      22.29121606        2       1.00000000       0.00000000       0.00000000       0.00000000       0.00000000       0.00000000       0.00000000
H        0.00000000       0.00000000      24.58243212        1       1.00000000       0.00000000       0.00000000       0.00000000       0.00000000       0.00000000       0.00000000
H        2.80615512       0.00000000      24.58243212        1       1.00000000       0.00000000       0.00000000       0.00000000       0.00000000       0.00000000       0.00000000
H        1.40307756       2.43020162      24.58243212        1       1.00000000       0.00000000       0.00000000       0.00000000       0.00000000       0.00000000       0.00000000
H        4.20923268       2.43020162      24.58243212        1       1.00000000       0.00000000       0.00000000       0.00000000       0.00000000       0.00000000       0.00000000
H        4.21883091       4.09283911      26.79997699        0       1.00000000       0.04379481       0.01013999      -0.00059474       0.11037593      -0.05296437      -0.00815460
H        5.61295407       0.01223727      29.03584359        0       1.00000000      -0.02907417      -0.03316964      -0.04138278      -0.02687418       0.06959789       0.07871653
H       -0.01678214       1.59519782      26.78325846        0       1.00000000       0.02333379      -0.00168991      -0.00367633       0.00101026       0.13009482      -0.04697466
H        2.81584692       0.01161571      29.04186096        0       1.00000000       0.02038334       0.00581272       0.05850657      -0.00406514      -0.03623176       0.06065965
H        1.40372308       4.07644867      26.79156694        0       1.00000000      -0.00644726       0.01852577       0.00202035      -0.10691913      -0.02434255       0.09910468
H        2.78990240       1.64957499      26.80545213        0       1.00000000       0.02347093       0.01735209       0.00182088       0.01267177       0.02258509      -0.03918297
H        1.39582373       2.43444922      28.99781652        0       1.00000000      -0.03796125      -0.01651156       0.00620798       0.05222850      -0.03917220      -0.06822928
H        4.20235568       2.46327366      29.00620493        0       1.00000000      -0.01576382       0.05062743      -0.00597564      -0.01304011      -0.05350226      -0.01446222
20
Lattice="5.612310241546866 0.0 0.0 0.0 4.860403243099165 0.0 0.0 0.0 44.58243212332868" Properties=species:S:1:pos:R:3:tags:I:1:masses:R:1:momenta:R:3:forces:R:3 KEmax=25.851991011651638 iter=52298 volume=1216.1236359717223 set_wall=T ns_energy=-13.617693293790728 last_walked_iter_clone=52187 energy=-13.624262607728808 stress="0.025191298088802022 0.00014468810023771688 -0.00032837106842229544 0.00014468810023771688 0.0245867381948823 0.0003984516975552073 -0.00032837106842229544 0.0003984516975552073 0.010540005085777971" pbc="T T F"
H        1.40307756       0.81006721      20.00000000        3       1.00000000       0.00000000       0.00000000       0.00000000       0.00000000       0.00000000       0.00000000
H        4.20923268       0.81006721      20.00000000        3       1.00000000       0.00000000       0.00000000       0.00000000       0.00000000       0.00000000       0.00000000
H        0.00000000       3.24026883      20.00000000        3       1.00000000       0.00000000       0.00000000       0.00000000       0.00000000       0.00000000       0.00000000
H        2.80615512       3.24026883      20.00000000        3       1.00000000       0.00000000       0.00000000       0.00000000       0.00000000       0.00000000       0.00000000
H        0.00000000       1.62013441      22.29121606        2       1.00000000       0.00000000       0.00000000       0.00000000       0.00000000       0.00000000       0.00000000
H        2.80615512       1.62013441      22.29121606        2       1.00000000       0.00000000       0.00000000       0.00000000       0.00000000       0.00000000       0.00000000
H        1.40307756       4.05033604      22.29121606        2       1.00000000       0.00000000       0.00000000       0.00000000       0.00000000       0.00000000       0.00000000
H        4.20923268       4.05033604      22.29121606        2       1.00000000       0.00000000       0.00000000       0.00000000       0.00000000       0.00000000       0.00000000
H        0.00000000       0.00000000      24.58243212        1       1.00000000       0.00000000       0.00000000       0.00000000       0.00000000       0.00000000       0.00000000
H        2.80615512       0.00000000      24.58243212        1       1.00000000       0.00000000       0.00000000       0.00000000       0.00000000       0.00000000       0.00000000
H        1.40307756       2.43020162      24.58243212        1       1.00000000       0.00000000       0.00000000       0.00000000       0.00000000       0.00000000       0.00000000
H        4.20923268       2.43020162      24.58243212        1       1.00000000       0.00000000       0.00000000       0.00000000       0.00000000       0.00000000       0.00000000
H        4.21767892       4.04938515      26.77229253        0       1.00000000       0.03258086       0.00644668      -0.00158049       0.11037593      -0.05296437      -0.00815460
H        0.02063241       4.87334655      29.00046267        0       1.00000000      -0.01916023       0.03103411      -0.02722970      -0.02687418       0.06959789       0.07871653
H        5.63865913       1.63196871      26.77548837        0       1.00000000      -0.02291977       0.01790251       0.01044472       0.00101026       0.13009482      -0.04697466
H        2.82118805       4.86855645      29.03354030        0       1.00000000      -0.01092888      -0.00758425      -0.04018059      -0.00406514      -0.03623176       0.06065965
H        1.40846917       4.08289111      26.78907964        0       1.00000000      -0.00773498       0.02035713       0.03445526      -0.10691913      -0.02434255       0.09910468
H        2.81115333       1.61710493      26.76360242        0       1.00000000       0.03056293      -0.03608466       0.04459900       0.01267177       0.02258509      -0.03918297
H        1.38241666       2.41078759      28.99839080        0       1.00000000       0.02433422       0.00336422       0.02535834       0.05222850      -0.03917220      -0.06822928
H        4.19921078       2.41945257      28.97197707        0       1.00000000      -0.04176871       0.00132126       0.00485460      -0.01304011      -0.05350226      -0.01446222
20
Lattice="5.612310241546866 0.0 0.0 0.0 4.860403243099165 0.0 0.0 0.0 44.58243212332868" Properties=species:S:1:pos:R:3:tags:I:1:masses:R:1:momenta:R:3:forces:R:3 KEmax=25.851991011651638 iter=52298 volume=1216.1236359717223 set_wall=T ns_energy=-13.617883373802899 last_walked_iter_clone=52276 energy=-13.624262607728808 stress="0.025191298088802022 0.00014468810023771688 -0.00032837106842229544 0.00014468810023771688 0.0245867381948823 0.0003984516975552073 -0.00032837106842229544 0.0003984516975552073 0.010540005085777971" pbc="T T F"
H        1.40307756       0.81006721      20.00000000        3       1.00000000       0.00000000       0.00000000       0.00000000       0.00000000       0.00000000       0.00000000
H        4.20923268       0.81006721      20.00000000        3       1.00000000       0.00000000       0.00000000       0.00000000       0.00000000       0.00000000       0.00000000
H        0.00000000       3.24026883      20.00000000        3       1.00000000       0.00000000       0.00000000       0.00000000       0.00000000       0.00000000       0.00000000
H        2.80615512       3.24026883      20.00000000        3       1.00000000       0.00000000       0.00000000       0.00000000       0.00000000       0.00000000       0.00000000
H        0.00000000       1.62013441      22.29121606        2       1.00000000       0.00000000       0.00000000       0.00000000       0.00000000       0.00000000       0.00000000
H        2.80615512       1.62013441      22.29121606        2       1.00000000       0.00000000       0.00000000       0.00000000       0.00000000       0.00000000       0.00000000
H        1.40307756       4.05033604      22.29121606        2       1.00000000       0.00000000       0.00000000       0.00000000       0.00000000       0.00000000       0.00000000
H        4.20923268       4.05033604      22.29121606        2       1.00000000       0.00000000       0.00000000       0.00000000       0.00000000       0.00000000       0.00000000
H        0.00000000       0.00000000      24.58243212        1       1.00000000       0.00000000       0.00000000       0.00000000       0.00000000       0.00000000       0.00000000
H        2.80615512       0.00000000      24.58243212        1       1.00000000       0.00000000       0.00000000       0.00000000       0.00000000       0.00000000       0.00000000
H        1.40307756       2.43020162      24.58243212        1       1.00000000       0.00000000       0.00000000       0.00000000       0.00000000       0.00000000       0.00000000
H        4.20923268       2.43020162      24.58243212        1       1.00000000       0.00000000       0.00000000       0.00000000       0.00000000       0.00000000       0.00000000
H        4.21000310       4.06700895      26.79972771        0       1.00000000      -0.04500609      -0.02493357      -0.03145768       0.11037593      -0.05296437      -0.00815460
H       -0.01619764      -0.00768447      28.99561435        0       1.00000000      -0.02027402      -0.06279299       0.01559163      -0.02687418       0.06959789       0.07871653
H       -0.01606401       1.62523450      26.78586316        0       1.00000000      -0.02017862      -0.05530890       0.00855677       0.00101026       0.13009482      -0.04697466
H        2.79935887      -0.00844658      29.05946685        0       1.00000000      -0.02468118       0.00657343      -0.02871269      -0.00406514      -0.03623176       0.06065965
H        1.42004144       4.05764068      26.80404388        0       1.00000000       0.01788845      -0.00968086      -0.00868063      -0.10691913      -0.02434255       0.09910468
H        2.77260186       1.60350140      26.79987058        0       1.00000000       0.02016491      -0.03501381       0.04270145       0.01267177       0.02258509      -0.03918297
H        1.38959989       2.43083745      29.00400182        0       1.00000000      -0.00506487       0.01639562      -0.04176464       0.05222850      -0.03917220      -0.06822928
H        4.20647608       2.42444837      29.00158237        0       1.00000000      -0.00527562      -0.05132751       0.00357379      -0.01304011      -0.05350226      -0.01446222
20
Lattice="5.612310241546866 0.0 0.0 0.0 4.860403243099165 0.0 0.0 0.0 44.58243212332868" Properties=species:S:1:pos:R:3:tags:I:1:masses:R:1:momenta:R:3:forces:R:3 KEmax=25.851991011651638 iter=52298 volume=1216.1236359717223 set_wall=T ns_energy=-13.617448646164105 last_walked_iter_clone=52218 energy=-13.624262607728808 stress="0.025191298088802022 0.00014468810023771688 -0.00032837106842229544 0.00014468810023771688 0.0245867381948823 0.0003984516975552073 -0.00032837106842229544 0.0003984516975552073 0.010540005085777971" pbc="T T F"
H        1.40307756       0.81006721      20.00000000        3       1.00000000       0.00000000       0.00000000       0.00000000       0.00000000       0.00000000       0.00000000
H        4.20923268       0.81006721      20.00000000        3       1.00000000       0.00000000       0.00000000       0.00000000       0.00000000       0.00000000       0.00000000
H        0.00000000       3.24026883      20.00000000        3       1.00000000       0.00000000       0.00000000       0.00000000       0.00000000       0.00000000       0.00000000
H        2.80615512       3.24026883      20.00000000        3       1.00000000       0.00000000       0.00000000       0.00000000       0.00000000       0.00000000       0.00000000
H        0.00000000       1.62013441      22.29121606        2       1.00000000       0.00000000       0.00000000       0.00000000       0.00000000       0.00000000       0.00000000
H        2.80615512       1.62013441      22.29121606        2       1.00000000       0.00000000       0.00000000       0.00000000       0.00000000       0.00000000       0.00000000
H        1.40307756       4.05033604      22.29121606        2       1.00000000       0.00000000       0.00000000       0.00000000       0.00000000       0.00000000       0.00000000
H        4.20923268       4.05033604      22.29121606        2       1.00000000       0.00000000       0.00000000       0.00000000       0.00000000       0.00000000       0.00000000
H        0.00000000       0.00000000      24.58243212        1       1.00000000       0.00000000       0.00000000       0.00000000       0.00000000       0.00000000       0.00000000
H        2.80615512       0.00000000      24.58243212        1       1.00000000       0.00000000       0.00000000       0.00000000       0.00000000       0.00000000       0.00000000
H        1.40307756       2.43020162      24.58243212        1       1.00000000       0.00000000       0.00000000       0.00000000       0.00000000       0.00000000       0.00000000
H        4.20923268       2.43020162      24.58243212        1       1.00000000       0.00000000       0.00000000       0.00000000       0.00000000       0.00000000       0.00000000
H        4.24289690       4.06607479      26.81206711        0       1.00000000       0.03850804       0.01259386      -0.00820246       0.11037593      -0.05296437      -0.00815460
H        0.04529854       0.00389876      29.03731049        0       1.00000000      -0.01365776      -0.03328897       0.03415187      -0.02687418       0.06959789       0.07871653
H        5.62104367       1.63402393      26.79191158        0       1.00000000      -0.02447407      -0.01884987      -0.03748588       0.00101026       0.13009482      -0.04697466
H        2.84607284       0.04477343      29.03942073        0       1.00000000      -0.02809403       0.00622112      -0.01314010      -0.00406514      -0.03623176       0.06065965
H        1.42560026       4.05491459      26.80901046        0       1.00000000       0.00976527      -0.03900392       0.01103119      -0.10691913      -0.02434255       0.09910468
H        2.79646094       1.65055994      26.78675189        0       1.00000000       0.02198965      -0.02655256      -0.03330883       0.01267177       0.02258509      -0.03918297
H        1.41569465       2.46117759      29.05296891        0       1.00000000       0.00801337      -0.03678718      -0.02415878       0.05222850      -0.03917220      -0.06822928
H        4.23029369       2.47127193      29.05142532        0       1.00000000       0.02649127       0.01515720      -0.05358568      -0.01304011      -0.05350226      -0.01446222
20
Lattice="5.612310241546866 0.0 0.0 0.0 4.860403243099165 0.0 0.0 0.0 44.58243212332868" Properties=species:S:1:pos:R:3:tags:I:1:masses:R:1:momenta:R:3:forces:R:3 KEmax=25.851991011651638 iter=52298 volume=1216.1236359717223 set_wall=T ns_energy=-13.6174129210079 last_walked_iter_clone=52172 energy=-13.624262607728808 stress="0.025191298088802022 0.00014468810023771688 -0.00032837106842229544 0.00014468810023771688 0.0245867381948823 0.0003984516975552073 -0.00032837106842229544 0.0003984516975552073 0.010540005085777971" pbc="T T F"
H        1.40307756       0.81006721      20.00000000        3       1.00000000       0.00000000       0.00000000       0.00000000       0.00000000       0.00000000       0.00000000
H        4.20923268       0.81006721      20.00000000        3       1.00000000       0.00000000       0.00000000       0.00000000       0.00000000       0.00000000       0.00000000
H        0.00000000       3.24026883      20.00000000        3       1.00000000       0.00000000       0.00000000       0.00000000       0.00000000       0.00000000       0.00000000
H        2.80615512       3.24026883      20.00000000        3       1.00000000       0.00000000       0.00000000       0.00000000       0.00000000       0.00000000       0.00000000
H        0.00000000       1.62013441      22.29121606        2       1.00000000       0.00000000       0.00000000       0.00000000       0.00000000       0.00000000       0.00000000
H        2.80615512       1.62013441      22.29121606        2       1.00000000       0.00000000       0.00000000       0.00000000       0.00000000       0.00000000       0.00000000
H        1.40307756       4.05033604      22.29121606        2       1.00000000       0.00000000       0.00000000       0.00000000       0.00000000       0.00000000       0.00000000
H        4.20923268       4.05033604      22.29121606        2       1.00000000       0.00000000       0.00000000       0.00000000       0.00000000       0.00000000       0.00000000
H        0.00000000       0.00000000      24.58243212        1       1.00000000       0.00000000       0.00000000       0.00000000       0.00000000       0.00000000       0.00000000
H        2.80615512       0.00000000      24.58243212        1       1.00000000       0.00000000       0.00000000       0.00000000       0.00000000       0.00000000       0.00000000
H        1.40307756       2.43020162      24.58243212        1       1.00000000       0.00000000       0.00000000       0.00000000       0.00000000       0.00000000       0.00000000
H        4.20923268       2.43020162      24.58243212        1       1.00000000       0.00000000       0.00000000       0.00000000       0.00000000       0.00000000       0.00000000
H        4.22783140       4.06721083      26.77361643        0       1.00000000       0.00775992       0.00573100       0.00464149       0.11037593      -0.05296437      -0.00815460
H        5.65985615       0.03848942      29.00193757        0       1.00000000       0.02654489      -0.01290199       0.00418613      -0.02687418       0.06959789       0.07871653
H       -0.02276533       1.66703032      26.76303623        0       1.00000000       0.01168960      -0.00422338       0.03266032       0.00101026       0.13009482      -0.04697466
H        2.81522415       0.03823468      29.03145591        0       1.00000000       0.00369619      -0.03846206      -0.02200164      -0.00406514      -0.03623176       0.06065965
H        1.41992064       4.06570006      26.77318120        0       1.00000000      -0.02601724       0.01913143      -0.03800865      -0.10691913      -0.02434255       0.09910468
H        2.77856291       1.62581191      26.81171876        0       1.00000000       0.00235995      -0.01919517      -0.01387001       0.01267177       0.02258509      -0.03918297
H        1.40720963       2.47235223      29.01442184        0       1.00000000       0.00844864      -0.02684782      -0.03308275       0.05222850      -0.03917220      -0.06822928
H        4.19653566       2.47399990      29.00984097        0       1.00000000       0.02012125      -0.02529148       0.01567017      -0.01304011      -0.05350226      -0.01446222
20
Lattice="5.612310241546866 0.0 0.0 0.0 4.860403243099165 0.0 0.0 0.0 44.58243212332868" Properties=species:S:1:pos:R:3:tags:I:1:masses:R:1:momenta:R:3:forces:R:3 KEmax=25.851991011651638 iter=52298 volume=1216.1236359717223 set_wall=T ns_energy=-13.617494311853362 last_walked_iter_clone=52118 energy=-13.624262607728808 stress="0.025191298088802022 0.00014468810023771688 -0.00032837106842229544 0.00014468810023771688 0.0245867381948823 0.0003984516975552073 -0.00032837106842229544 0.0003984516975552073 0.010540005085777971" pbc="T T F"
H        1.40307756       0.81006721      20.00000000        3       1.00000000       0.00000000       0.00000000       0.00000000       0.00000000       0.00000000       0.00000000
H        4.20923268       0.81006721      20.00000000        3       1.00000000       0.00000000       0.00000000       0.00000000       0.00000000       0.00000000       0.00000000
H        0.00000000       3.24026883      20.00000000        3       1.00000000       0.00000000       0.00000000       0.00000000       0.00000000       0.00000000       0.00000000
H        2.80615512       3.24026883      20.00000000        3       1.00000000       0.00000000       0.00000000       0.00000000       0.00000000       0.00000000       0.00000000
H        0.00000000       1.62013441      22.29121606        2       1.00000000       0.00000000       0.00000000       0.00000000       0.00000000       0.00000000       0.00000000
H        2.80615512       1.62013441      22.29121606        2       1.00000000       0.00000000       0.00000000       0.00000000       0.00000000       0.00000000       0.00000000
H        1.40307756       4.05033604      22.29121606        2       1.00000000       0.00000000       0.00000000       0.00000000       0.00000000       0.00000000       0.00000000
H        4.20923268       4.05033604      22.29121606        2       1.00000000       0.00000000       0.00000000       0.00000000       0.00000000       0.00000000       0.00000000
H        0.00000000       0.00000000      24.58243212        1       1.00000000       0.00000000       0.00000000       0.00000000       0.00000000       0.00000000       0.00000000
H        2.80615512       0.00000000      24.58243212        1       1.00000000       0.00000000       0.00000000       0.00000000       0.00000000       0.00000000       0.00000000
H        1.40307756       2.43020162      24.58243212        1       1.00000000       0.00000000       0.00000000       0.00000000       0.00000000       0.00000000       0.00000000
H        4.20923268       2.43020162      24.58243212        1       1.00000000       0.00000000       0.00000000       0.00000000       0.00000000       0.00000000       0.00000000
H        4.20206035       4.07432569      26.82116218        0       1.00000000       0.01690117       0.04122865       0.04294268       0.11037593      -0.05296437      -0.00815460
H        5.57820073       4.89386333      29.03798203        0       1.00000000       0.00831599       0.03215126      -0.03339755      -0.02687418       0.06959789       0.07871653
H        5.61036508       1.63721246      26.81323062        0       1.00000000      -0.00928282      -0.01477519       0.03246886       0.00101026       0.13009482      -0.04697466
H        2.75594140       0.00777374      29.03573006        0       1.00000000      -0.07279476      -0.02461765       0.01649370      -0.00406514      -0.03623176       0.06065965
H        1.37792461       4.04065719      26.80236437        0       1.00000000      -0.01290219       0.01249521       0.00553670      -0.10691913      -0.02434255       0.09910468
H        2.80845231       1.63187599      26.81713333        0       1.00000000      -0.02149240       0.00231288       0.00176420       0.01267177       0.02258509      -0.03918297
H        1.36398835       2.47364302      29.04536781        0       1.00000000       0.03601627       0.01235069      -0.01858795       0.05222850      -0.03917220      -0.06822928
H        4.18952330       2.44852151      29.04632686        0       1.00000000       0.05091735       0.02478439      -0.02209492      -0.01304011      -0.05350226      -0.01446222
20
Lattice="5.612310241546866 0.0 0.0 0.0 4.860403243099165 0.0 0.0 0.0 44.58243212332868" Properties=species:S:1:pos:R:3:tags:I:1:masses:R:1:momenta:R:3:forces:R:3 KEmax=25.851991011651638 iter=52298 volume=1216.1236359717223 set_wall=T ns_energy=-13.618641139517266 last_walked_iter_clone=52290 energy=-13.624262607728808 stress="0.025191298088802022 0.00014468810023771688 -0.00032837106842229544 0.00014468810023771688 0.0245867381948823 0.0003984516975552073 -0.00032837106842229544 0.0003984516975552073 0.010540005085777971" pbc="T T F"
H        1.40307756       0.81006721      20.00000000        3       1.00000000       0.00000000       0.00000000       0.00000000       0.00000000       0.00000000       0.00000000
H        4.20923268       0.81006721      20.00000000        3       1.00000000       0.00000000       0.00000000       0.00000000       0.00000000       0.00000000       0.00000000
H        0.00000000       3.24026883      20.00000000        3       1.00000000       0.00000000       0.00000000       0.00000000       0.00000000       0.00000000       0.00000000
H        2.80615512       3.24026883      20.00000000        3       1.00000000       0.00000000       0.00000000       0.00000000       0.00000000       0.00000000       0.00000000
H        0.00000000       1.62013441      22.29121606        2       1.00000000       0.00000000       0.00000000       0.00000000       0.00000000       0.00000000       0.00000000
H        2.80615512       1.62013441      22.29121606        2       1.00000000       0.00000000       0.00000000       0.00000000       0.00000000       0.00000000       0.00000000
H        1.40307756       4.05033604      22.29121606        2       1.00000000       0.00000000       0.00000000       0.00000000       0.00000000       0.00000000       0.00000000
H        4.20923268       4.05033604      22.29121606        2       1.00000000       0.00000000       0.00000000       0.00000000       0.00000000       0.00000000       0.00000000
H        0.00000000       0.00000000      24.58243212        1       1.00000000       0.00000000       0.00000000       0.00000000       0.00000000       0.00000000       0.00000000
H        2.80615512       0.00000000      24.58243212        1       1.00000000       0.00000000       0.00000000       0.00000000       0.00000000       0.00000000       0.00000000
H        1.40307756       2.43020162      24.58243212        1       1.00000000       0.00000000       0.00000000       0.00000000       0.00000000       0.00000000       0.00000000
H        4.20923268       2.43020162      24.58243212        1       1.00000000       0.00000000       0.00000000       0.00000000       0.00000000       0.00000000       0.00000000
H        4.19156751       4.05260744      26.79642239        0       1.00000000       0.01640306       0.05427160       0.07772895       0.11037593      -0.05296437      -0.00815460
H        5.56570363       0.00932799      29.03325704        0       1.00000000       0.02280841      -0.02047032      -0.02507570      -0.02687418       0.06959789       0.07871653
H        5.59249802       1.62502456      26.80368205        0       1.00000000       0.04306293      -0.00241403      -0.02443839       0.00101026       0.13009482      -0.04697466
H        2.74334147       0.01548395      29.01541314        0       1.00000000      -0.03747707      -0.05455859      -0.04109166      -0.00406514      -0.03623176       0.06065965
H        1.35732956       4.04974226      26.80721080        0       1.00000000      -0.02385726       0.00157535       0.01045969      -0.10691913      -0.02434255       0.09910468
H        2.78790689       1.62803833      26.78892464        0       1.00000000       0.02103149      -0.00826727      -0.02652126       0.01267177       0.02258509      -0.03918297
H        1.37450249       2.43461779      29.03553239        0       1.00000000      -0.02129443      -0.01380281      -0.03429665       0.05222850      -0.03917220      -0.06822928
H        4.16458150       2.42863773      29.03838740        0       1.00000000       0.00156577      -0.02948730       0.02478708      -0.01304011      -0.05350226      -0.01446222
20
Lattice="5.612310241546866 0.0 0.0 0.0 4.860403243099165 0.0 0.0 0.0 44.58243212332868" Properties=species:S:1:pos:R:3:tags:I:1:masses:R:1:momenta:R:3:forces:R:3 KEmax=25.851991011651638 iter=52298 volume=1216.1236359717223 set_wall=T ns_energy=-13.617294330935284 last_walked_iter_clone=52208 energy=-13.624262607728808 stress="0.025191298088802022 0.00014468810023771688 -0.00032837106842229544 0.00014468810023771688 0.0245867381948823 0.0003984516975552073 -0.00032837106842229544 0.0003984516975552073 0.010540005085777971" pbc="T T F"