20
Lattice="5.612310241546866 0.0 0.0 0.0 4.860403243099165 0.0 0.0 0.0 44.58243212332868" Properties=species:S:1:pos:R:3:tags:I:1:masses:R:1:momenta:R:3:forces:R:3 KEmax=25.851991011651638 iter=100351 volume=1216.1236359717223 set_wall=T ns_energy=-13.635839496797804 last_walked_iter_clone=100251 energy=-13.635843626685876 stress="0.025346324724823347 -1.8623466149785753e-06 1.0192242513901452e-05 -1.8623466149785753e-06 0.025343376560208363 2.0941755697560804e-05 1.0192242513901452e-05 2.0941755697560804e-05 0.011511959114501905" pbc="T T F"
H        1.40307756       0.81006721      20.00000000        3       1.00000000       0.00000000       0.00000000       0.00000000       0.00000000       0.00000000       0.00000000
H        4.20923268       0.81006721      20.00000000        3       1.00000000       0.00000000       0.00000000       0.00000000       0.00000000       0.00000000       0.00000000
H        0.00000000       3.24026883      20.00000000        3       1.00000000       0.00000000       0.00000000       0.00000000       0.00000000       0.00000000       0.00000000
H        2.80615512       3.24026883      20.00000000        3       1.00000000       0.00000000       0.00000000       0.00000000       0.00000000       0.00000000       0.00000000
H        0.00000000       1.62013441      22.29121606        2       1.00000000       0.00000000       0.00000000       0.00000000       0.00000000       0.00000000       0.00000000
H        2.80615512       1.62013441      22.29121606        2       1.00000000       0.00000000       0.00000000       0.00000000       0.00000000       0.00000000       0.00000000
H        1.40307756       4.05033604      22.29121606        2       1.00000000       0.00000000       0.00000000       0.00000000       0.00000000       0.00000000       0.00000000
H        4.20923268       4.05033604      22.29121606        2       1.00000000       0.00000000       0.00000000       0.00000000       0.00000000       0.00000000       0.00000000
H        0.00000000       0.00000000      24.58243212        1       1.00000000       0.00000000       0.00000000       0.00000000       0.00000000       0.00000000       0.00000000
H        2.80615512       0.00000000      24.58243212        1       1.00000000       0.00000000       0.00000000       0.00000000       0.00000000       0.00000000       0.00000000
H        1.40307756       2.43020162      24.58243212        1       1.00000000       0.00000000       0.00000000       0.00000000       0.00000000       0.00000000       0.00000000
H        4.20923268       2.43020162      24.58243212        1       1.00000000       0.00000000       0.00000000       0.00000000       0.00000000       0.00000000       0.00000000
H        4.20954788       4.05032716      26.79093442        0       1.00000000       0.00088791       0.00049273       0.00018431       0.00060689      -0.00203907       0.00010456
H        0.00004369       4.86109602      29.01768103        0       1.00000000      -0.00033791      -0.00034546       0.00065757       0.00003179      -0.00087067      -0.00177657
H        0.00035413       1.62045635      26.79046834        0       1.00000000       0.00098854      -0.00062525       0.00026408       0.00108196      -0.00122442       0.00090003
H        2.80656977      -0.00030766      29.01815557        0       1.00000000       0.00016968      -0.00074607       0.00106192      -0.00062943      -0.00050619       0.00216431
H        1.40286248       4.05112119      26.79108246        0       1.00000000      -0.00014817       0.00067039       0.00025748      -0.00151833      -0.00030949       0.00166859
H        2.80633929       1.62025220      26.79140030        0       1.00000000      -0.00045999      -0.00055843      -0.00010660      -0.00058208       0.00389451       0.00028035
H        1.40377223       2.43062793      29.01779372        0       1.00000000       0.00066023       0.00000636      -0.00028577      -0.00026426       0.00104611       0.00047985
H        4.21025379       2.43070167      29.01682591        0       1.00000000       0.00048812       0.00132650       0.00120468       0.00050192      -0.00099001       0.00063827
20
Lattice="5.612310241546866 0.0 0.0 0.0 4.860403243099165 0.0 0.0 0.0 44.58243212332868" Properties=species:S:1:pos:R:3:tags:I:1:masses:R:1:momenta:R:3:forces:R:3 KEmax=25.851991011651638 iter=100351 volume=1216.1236359717223 set_wall=T ns_energy=-13.63583935948475 last_walked_iter_clone=100021 energy=-13.635843626685876 stress="0.025346324724823347 -1.8623466149785753e-06 1.0192242513901452e-05 -1.8623466149785753e-06 0.025343376560208363 2.0941755697560804e-05 1.0192242513901452e-05 2.0941755697560804e-05 0.011511959114501905" pbc="T T F"
H        1.40307756       0.81006721      20.00000000        3       1.00000000       0.00000000       0.00000000       0.00000000       0.00000000       0.00000000       0.00000000
H        4.20923268       0.81006721      20.00000000        3       1.00000000       0.00000000       0.00000000       0.00000000       0.00000000       0.00000000       0.00000000
H        0.00000000       3.24026883      20.00000000        3       1.00000000       0.00000000       0.00000000       0.00000000       0.00000000       0.00000000       0.00000000
H        2.80615512       3.24026883      20.00000000        3       1.00000000       0.00000000       0.00000000       0.00000000       0.00000000       0.00000000       0.00000000
H        0.00000000       1.62013441      22.29121606        2       1.00000000       0.00000000       0.00000000       0.00000000       0.00000000       0.00000000       0.00000000
H        2.80615512       1.62013441      22.29121606        2       1.00000000       0.00000000       0.00000000       0.00000000       0.00000000       0.00000000       0.00000000
H        1.40307756       4.05033604      22.29121606        2       1.00000000       0.00000000       0.00000000       0.00000000       0.00000000       0.00000000       0.00000000
H        4.20923268       4.05033604      22.29121606        2       1.00000000       0.00000000       0.00000000       0.00000000       0.00000000       0.00000000       0.00000000
H        0.00000000       0.00000000      24.58243212        1       1.00000000       0.00000000       0.00000000       0.00000000       0.00000000       0.00000000       0.00000000
H        2.80615512       0.00000000      24.58243212        1       1.00000000       0.00000000       0.00000000       0.00000000       0.00000000       0.00000000       0.00000000
H        1.40307756       2.43020162      24.58243212        1       1.00000000       0.00000000       0.00000000       0.00000000       0.00000000       0.00000000       0.00000000
H        4.20923268       2.43020162      24.58243212        1       1.00000000       0.00000000       0.00000000       0.00000000       0.00000000       0.00000000       0.00000000
H        4.20919120       4.04993185      26.79101195        0       1.00000000       0.00059578      -0.00008279      -0.00084887       0.00060689      -0.00203907       0.00010456
H       -0.00023355       4.86087853      29.01776709        0       1.00000000       0.00009925      -0.00041244       0.00020925       0.00003179      -0.00087067      -0.00177657
H        5.61252968       1.62006814      26.79100058        0       1.00000000       0.00038175      -0.00002453       0.00098436       0.00108196      -0.00122442       0.00090003
H        2.80644517       4.86016977      29.01795834        0       1.00000000      -0.00082865       0.00076028      -0.00066605      -0.00062943      -0.00050619       0.00216431
H        1.40317229       4.04994882      26.79156645        0       1.00000000       0.00053282      -0.00114807      -0.00120313      -0.00151833      -0.00030949       0.00166859
H        2.80652155       1.61992575      26.79047018        0       1.00000000       0.00119745       0.00050354       0.00109973      -0.00058208       0.00389451       0.00028035
H        1.40339129       2.43046466      29.01810914        0       1.00000000       0.00064329       0.00027406       0.00016849      -0.00026426       0.00104611       0.00047985
H        4.20995525       2.43006446      29.01738337        0       1.00000000      -0.00036571       0.00014755       0.00006017       0.00050192      -0.00099001       0.00063827
20
Lattice="5.612310241546866 0.0 0.0 0.0 4.860403243099165 0.0 0.0 0.0 44.58243212332868" Properties=species:S:1:pos:R:3:tags:I:1:masses:R:1:momenta:R:3:forces:R:3 KEmax=25.851991011651638 iter=100351 volume=1216.1236359717223 set_wall=T ns_energy=-13.635839666623436 last_walked_iter_clone=100216 energy=-13.635843626685876 stress="0.025346324724823347 -1.8623466149785753e-06 1.0192242513901452e-05 -1.8623466149785753e-06 0.025343376560208363 2.0941755697560804e-05 1.0192242513901452e-05 2.0941755697560804e-05 0.011511959114501905" pbc="T T F"
H        1.40307756       0.81006721      20.00000000        3       1.00000000       0.00000000       0.00000000       0.00000000       0.00000000       0.00000000       0.00000000
H        4.20923268       0.81006721      20.00000000        3       1.00000000       0.00000000       0.00000000       0.00000000       0.00000000       0.00000000       0.00000000
H        0.00000000       3.24026883      20.00000000        3       1.00000000       0.00000000       0.00000000       0.00000000       0.00000000       0.00000000       0.00000000
H        2.80615512       3.24026883      20.00000000        3       1.00000000       0.00000000       0.00000000       0.00000000       0.00000000       0.00000000       0.00000000
H        0.00000000       1.62013441      22.29121606        2       1.00000000       0.00000000       0.00000000       0.00000000       0.00000000       0.00000000       0.00000000
H        2.80615512       1.62013441      22.29121606        2       1.00000000       0.00000000       0.00000000       0.00000000       0.00000000       0.00000000       0.00000000
H        1.40307756       4.05033604      22.29121606        2       1.00000000       0.00000000       0.00000000       0.00000000       0.00000000       0.00000000       0.00000000
H        4.20923268       4.05033604      22.29121606        2       1.00000000       0.00000000       0.00000000       0.00000000       0.00000000       0.00000000       0.00000000
H        0.00000000       0.00000000      24.58243212        1       1.00000000       0.00000000       0.00000000       0.00000000       0.00000000       0.00000000       0.00000000
H        2.80615512       0.00000000      24.58243212        1       1.00000000       0.00000000       0.00000000       0.00000000       0.00000000       0.00000000       0.00000000
H        1.40307756       2.43020162      24.58243212        1       1.00000000       0.00000000       0.00000000       0.00000000       0.00000000       0.00000000       0.00000000
H        4.20923268       2.43020162      24.58243212        1       1.00000000       0.00000000       0.00000000       0.00000000       0.00000000       0.00000000       0.00000000
H        4.20904726       4.04997789      26.79152506        0       1.00000000      -0.00084505       0.00113640      -0.00050796       0.00060689      -0.00203907       0.00010456
H       -0.00003809      -0.00131296      29.01726352        0       1.00000000       0.00028452      -0.00013159      -0.00024799       0.00003179      -0.00087067      -0.00177657
H        0.00035304       1.61953342      26.79123763        0       1.00000000       0.00049799       0.00037910      -0.00023875       0.00108196      -0.00122442       0.00090003
H        2.80614834       4.85979963      29.01833713        0       1.00000000       0.00090839       0.00082506      -0.00018914      -0.00062943      -0.00050619       0.00216431
H        1.40354539       4.05013128      26.79176983        0       1.00000000       0.00069095       0.00006615      -0.00011624      -0.00151833      -0.00030949       0.00166859
H        2.80607729       1.61971038      26.79097288        0       1.00000000       0.00044218      -0.00045582       0.00048538      -0.00058208       0.00389451       0.00028035
H        1.40309604       2.42913190      29.01784287        0       1.00000000      -0.00112941      -0.00084552       0.00002869      -0.00026426       0.00104611       0.00047985
H        4.20969430       2.42924098      29.01790545        0       1.00000000      -0.00143081      -0.00083235      -0.00014265       0.00050192      -0.00099001       0.00063827
20
Lattice="5.612310241546866 0.0 0.0 0.0 4.860403243099165 0.0 0.0 0.0 44.58243212332868" Properties=species:S:1:pos:R:3:tags:I:1:masses:R:1:momenta:R:3:forces:R:3 KEmax=25.851991011651638 iter=100351 volume=1216.1236359717223 set_wall=T ns_energy=-13.63583943757468 last_walked_iter_clone=100218 energy=-13.635843626685876 stress="0.025346324724823347 -1.8623466149785753e-06 1.0192242513901452e-05 -1.8623466149785753e-06 0.025343376560208363 2.0941755697560804e-05 1.0192242513901452e-05 2.0941755697560804e-05 0.011511959114501905" pbc="T T F"
H        1.40307756       0.81006721      20.00000000        3       1.00000000       0.00000000       0.00000000       0.00000000       0.00000000       0.00000000       0.00000000
H        4.20923268       0.81006721      20.00000000        3       1.00000000       0.00000000       0.00000000       0.00000000       0.00000000       0.00000000       0.00000000
H        0.00000000       3.24026883      20.00000000        3       1.00000000       0.00000000       0.00000000       0.00000000       0.00000000       0.00000000       0.00000000
H        2.80615512       3.24026883      20.00000000        3       1.00000000       0.00000000       0.00000000       0.00000000       0.00000000       0.00000000       0.00000000
H        0.00000000       1.62013441      22.29121606        2       1.00000000       0.00000000       0.00000000       0.00000000       0.00000000       0.00000000       0.00000000
H        2.80615512       1.62013441      22.29121606        2       1.00000000       0.00000000       0.00000000       0.00000000       0.00000000       0.00000000       0.00000000
H        1.40307756       4.05033604      22.29121606        2       1.00000000       0.00000000       0.00000000       0.00000000       0.00000000       0.00000000       0.00000000
H        4.20923268       4.05033604      22.29121606        2       1.00000000       0.00000000       0.00000000       0.00000000       0.00000000       0.00000000       0.00000000
H        0.00000000       0.00000000      24.58243212        1       1.00000000       0.00000000       0.00000000       0.00000000       0.00000000       0.00000000       0.00000000
H        2.80615512       0.00000000      24.58243212        1       1.00000000       0.00000000       0.00000000       0.00000000       0.00000000       0.00000000       0.00000000
H        1.40307756       2.43020162      24.58243212        1       1.00000000       0.00000000       0.00000000       0.00000000       0.00000000       0.00000000       0.00000000
H        4.20923268       2.43020162      24.58243212        1       1.00000000       0.00000000       0.00000000       0.00000000       0.00000000       0.00000000       0.00000000
H        4.20978093       4.05024235      26.79099394        0       1.00000000      -0.00145160       0.00019667      -0.00100386       0.00060689      -0.00203907       0.00010456
H       -0.00017068       4.86016655      29.01732128        0       1.00000000      -0.00000654       0.00005844       0.00041272       0.00003179      -0.00087067      -0.00177657
H        0.00080298       1.62031827      26.79070536        0       1.00000000       0.00075779      -0.00014717      -0.00056454       0.00108196      -0.00122442       0.00090003
H        2.80608968       4.86084789      29.01745451        0       1.00000000       0.00040980      -0.00044405       0.00072281      -0.00062943      -0.00050619       0.00216431
H        1.40402863       4.04989434      26.79054026        0       1.00000000      -0.00115828      -0.00063598       0.00005025      -0.00151833      -0.00030949       0.00166859
H        2.80617391       1.62004220      26.79080853        0       1.00000000      -0.00041251      -0.00050706      -0.00126464      -0.00058208       0.00389451       0.00028035
H        1.40341452       2.43011981      29.01747246        0       1.00000000      -0.00078225       0.00039365       0.00096327      -0.00026426       0.00104611       0.00047985
H        4.20993364       2.43037748      29.01680989        0       1.00000000       0.00037713       0.00077516       0.00035403       0.00050192      -0.00099001       0.00063827
20
Lattice="5.612310241546866 0.0 0.0 0.0 4.860403243099165 0.0 0.0 0.0 44.58243212332868" Properties=species:S:1:pos:R:3:tags:I:1:masses:R:1:momenta:R:3:forces:R:3 KEmax=25.851991011651638 iter=100351 volume=1216.1236359717223 set_wall=T ns_energy=-13.635839392662467 last_walked_iter_clone=100205 energy=-13.635843626685876 stress="0.025346324724823347 -1.8623466149785753e-06 1.0192242513901452e-05 -1.8623466149785753e-06 0.025343376560208363 2.0941755697560804e-05 1.0192242513901452e-05 2.0941755697560804e-05 0.011511959114501905" pbc="T T F"
H        1.40307756       0.81006721      20.00000000        3       1.00000000       0.00000000       0.00000000       0.00000000       0.00000000       0.00000000       0.00000000
H        4.20923268       0.81006721      20.00000000        3       1.00000000       0.00000000       0.00000000       0.00000000       0.00000000       0.00000000       0.00000000
H        0.00000000       3.24026883      20.00000000        3       1.00000000       0.00000000       0.00000000       0.00000000       0.00000000       0.00000000       0.00000000
H        2.80615512       3.24026883      20.00000000        3       1.00000000       0.00000000       0.00000000       0.00000000       0.00000000       0.00000000       0.00000000
H        0.00000000       1.62013441      22.29121606        2       1.00000000       0.00000000       0.00000000       0.00000000       0.00000000       0.00000000       0.00000000
H        2.80615512       1.62013441      22.29121606        2       1.00000000       0.00000000       0.00000000       0.00000000       0.00000000       0.00000000       0.00000000
H        1.40307756       4.05033604      22.29121606        2       1.00000000       0.00000000       0.00000000       0.00000000       0.00000000       0.00000000       0.00000000
H        4.20923268       4.05033604      22.29121606        2       1.00000000       0.00000000       0.00000000       0.00000000       0.00000000       0.00000000       0.00000000
H        0.00000000       0.00000000      24.58243212        1       1.00000000       0.00000000       0.00000000       0.00000000       0.00000000       0.00000000       0.00000000
H        2.80615512       0.00000000      24.58243212        1       1.00000000       0.00000000       0.00000000       0.00000000       0.00000000       0.00000000       0.00000000
H        1.40307756       2.43020162      24.58243212        1       1.00000000       0.00000000       0.00000000       0.00000000       0.00000000       0.00000000       0.00000000
H        4.20923268       2.43020162      24.58243212        1       1.00000000       0.00000000       0.00000000       0.00000000       0.00000000       0.00000000       0.00000000
H        4.20877840       4.05080048      26.79126379        0       1.00000000       0.00014807      -0.00017005       0.00082618       0.00060689      -0.00203907       0.00010456
H        5.61165815       4.86045785      29.01835701        0       1.00000000       0.00028185       0.00011538       0.00018467       0.00003179      -0.00087067      -0.00177657
H        5.61266022       1.62007413      26.79118569        0       1.00000000      -0.00074430      -0.00065451       0.00121359       0.00108196      -0.00122442       0.00090003
H        2.80501120      -0.00014269      29.01763635        0       1.00000000      -0.00057732      -0.00069840       0.00149847      -0.00062943      -0.00050619       0.00216431
H        1.40233233       4.05012636      26.79158927        0       1.00000000      -0.00091333      -0.00074717      -0.00017314      -0.00151833      -0.00030949       0.00166859
H        2.80564781       1.62025419      26.79092170        0       1.00000000       0.00067134      -0.00075168      -0.00021662      -0.00058208       0.00389451       0.00028035
H        1.40176510       2.42998633      29.01824589        0       1.00000000      -0.00068233       0.00060713       0.00015074      -0.00026426       0.00104611       0.00047985
H        4.20833657       2.43048681      29.01680535        0       1.00000000       0.00061056       0.00000250      -0.00058363       0.00050192      -0.00099001       0.00063827
20
Lattice="5.612310241546866 0.0 0.0 0.0 4.860403243099165 0.0 0.0 0.0 44.58243212332868" Properties=species:S:1:pos:R:3:tags:I:1:masses:R:1:momenta:R:3:forces:R:3 KEmax=25.851991011651638 iter=100351 volume=1216.1236359717223 set_wall=T ns_energy=-13.6358402093738 last_walked_iter_clone=100266 energy=-13.635843626685876 stress="0.025346324724823347 -1.8623466149785753e-06 1.0192242513901452e-05 -1.8623466149785753e-06 0.025343376560208363 2.0941755697560804e-05 1.0192242513901452e-05 2.0941755697560804e-05 0.011511959114501905" pbc="T T F"
H        1.40307756       0.81006721      20.00000000        3       1.00000000       0.00000000       0.00000000       0.00000000       0.00000000       0.00000000       0.00000000
H        4.20923268       0.81006721      20.00000000        3       1.00000000       0.00000000       0.00000000       0.00000000       0.00000000       0.00000000       0.00000000
H        0.00000000       3.24026883      20.00000000        3       1.00000000       0.00000000       0.00000000       0.00000000       0.00000000       0.00000000       0.00000000
H        2.80615512       3.24026883      20.00000000        3       1.00000000       0.00000000       0.00000000       0.00000000       0.00000000       0.00000000       0.00000000
H        0.00000000       1.62013441      22.29121606        2       1.00000000       0.00000000       0.00000000       0.00000000       0.00000000       0.00000000       0.00000000
H        2.80615512       1.62013441      22.29121606        2       1.00000000       0.00000000       0.00000000       0.00000000       0.00000000       0.00000000       0.00000000
H        1.40307756       4.05033604      22.29121606        2       1.00000000       0.00000000       0.00000000       0.00000000       0.00000000       0.00000000       0.00000000
H        4.20923268       4.05033604      22.29121606        2       1.00000000       0.00000000       0.00000000       0.00000000       0.00000000       0.00000000       0.00000000
H        0.00000000       0.00000000      24.58243212        1       1.00000000       0.00000000       0.00000000       0.00000000       0.00000000       0.00000000       0.00000000
H        2.80615512       0.00000000      24.58243212        1       1.00000000       0.00000000       0.00000000       0.00000000       0.00000000       0.00000000       0.00000000
H        1.40307756       2.43020162      24.58243212        1       1.00000000       0.00000000       0.00000000       0.00000000       0.00000000       0.00000000       0.00000000
H        4.20923268       2.43020162      24.58243212        1       1.00000000       0.00000000       0.00000000       0.00000000       0.00000000       0.00000000       0.00000000
H        4.20924947       4.05008406      26.79131437        0       1.00000000       0.00054699       0.00013722       0.00081805       0.00060689      -0.00203907       0.00010456
H       -0.00067269       4.86044809      29.01770507        0       1.00000000       0.00084698       0.00039119       0.00066655       0.00003179      -0.00087067      -0.00177657
H        5.61221011       1.62013727      26.79125859        0       1.00000000      -0.00138545      -0.00066518      -0.00079480       0.00108196      -0.00122442       0.00090003
H        2.80539307       4.86049354      29.01683585        0       1.00000000      -0.00141967       0.00030544      -0.00020065      -0.00062943      -0.00050619       0.00216431
H        1.40305107       4.05020576      26.79037892        0       1.00000000      -0.00006164       0.00071894       0.00025898      -0.00151833      -0.00030949       0.00166859
H        2.80662995       1.61983183      26.79106986        0       1.00000000       0.00104477      -0.00030900      -0.00064480      -0.00058208       0.00389451       0.00028035
H        1.40285754       2.43028919      29.01657144        0       1.00000000      -0.00066962       0.00067200       0.00084044      -0.00026426       0.00104611       0.00047985
H        4.20890307       2.43062007      29.01730841        0       1.00000000       0.00014095      -0.00046243       0.00007268       0.00050192      -0.00099001       0.00063827
20
Lattice="5.612310241546866 0.0 0.0 0.0 4.860403243099165 0.0 0.0 0.0 44.58243212332868" Properties=species:S:1:pos:R:3:tags:I:1:masses:R:1:momenta:R:3:forces:R:3 KEmax=25.851991011651638 iter=100351 volume=1216.1236359717223 set_wall=T ns_energy=-13.635839521556607 last_walked_iter_clone=100277 energy=-13.635843626685876 stress="0.025346324724823347 -1.8623466149785753e-06 1.0192242513901452e-05 -1.8623466149785753e-06 0.025343376560208363 2.0941755697560804e-05 1.0192242513901452e-05 2.0941755697560804e-05 0.011511959114501905" pbc="T T F"
H        1.40307756       0.81006721      20.00000000        3       1.00000000       0.00000000       0.00000000       0.00000000       0.00000000       0.00000000       0.00000000
H        4.20923268       0.81006721      20.00000000        3       1.00000000       0.00000000       0.00000000       0.00000000       0.00000000       0.00000000       0.00000000
H        0.00000000       3.24026883      20.00000000        3       1.00000000       0.00000000       0.00000000       0.00000000       0.00000000       0.00000000       0.00000000
H        2.80615512       3.24026883      20.00000000        3       1.00000000       0.00000000       0.00000000       0.00000000       0.00000000       0.00000000       0.00000000
H        0.00000000       1.62013441      22.29121606        2       1.00000000       0.00000000       0.00000000       0.00000000       0.00000000       0.00000000       0.00000000
H        2.80615512       1.62013441      22.29121606        2       1.00000000       0.00000000       0.00000000       0.00000000       0.00000000       0.00000000       0.00000000
H        1.40307756       4.05033604      22.29121606        2       1.00000000       0.00000000       0.00000000       0.00000000       0.00000000       0.00000000       0.00000000
H        4.20923268       4.05033604      22.29121606        2       1.00000000       0.00000000       0.00000000       0.00000000       0.00000000       0.00000000       0.00000000
H        0.00000000       0.00000000      24.58243212        1       1.00000000       0.00000000       0.00000000       0.00000000       0.00000000       0.00000000       0.00000000
H        2.80615512       0.00000000      24.58243212        1       1.00000000       0.00000000       0.00000000       0.00000000       0.00000000       0.00000000       0.00000000
H        1.40307756       2.43020162      24.58243212        1       1.00000000       0.00000000       0.00000000       0.00000000       0.00000000       0.00000000       0.00000000
H        4.20923268       2.43020162      24.58243212        1       1.00000000       0.00000000       0.00000000       0.00000000       0.00000000       0.00000000       0.00000000
H        4.20999008       4.04987914      26.79128519        0       1.00000000      -0.00063925      -0.00104602       0.00048539       0.00060689      -0.00203907       0.00010456
H        0.00045430       4.85982541      29.01777159        0       1.00000000      -0.00015362       0.00052099      -0.00004909       0.00003179      -0.00087067      -0.00177657
H        0.00073559       1.61985013      26.79068195        0       1.00000000      -0.00031506      -0.00007437       0.00101802       0.00108196      -0.00122442       0.00090003
H        2.80704538      -0.00096965      29.01771170        0       1.00000000      -0.00069004      -0.00011927      -0.00047713      -0.00062943      -0.00050619       0.00216431
H        1.40296967       4.05016777      26.79116891        0       1.00000000      -0.00078568      -0.00018914       0.00012629      -0.00151833      -0.00030949       0.00166859
H        2.80731005       1.61943483      26.79087969        0       1.00000000       0.00058355       0.00087637      -0.00027499      -0.00058208       0.00389451       0.00028035
H        1.40409117       2.42965589      29.01679153        0       1.00000000       0.00009545      -0.00070592       0.00096634      -0.00026426       0.00104611       0.00047985
H        4.20947917       2.42938679      29.01830043        0       1.00000000      -0.00078091      -0.00069572      -0.00019696       0.00050192      -0.00099001       0.00063827
20
Lattice="5.612310241546866 0.0 0.0 0.0 4.860403243099165 0.0 0.0 0.0 44.58243212332868" Properties=species:S:1:pos:R:3:tags:I:1:masses:R:1:momenta:R:3:forces:R:3 KEmax=25.851991011651638 iter=100351 volume=1216.1236359717223 set_wall=T ns_energy=-13.63583985807446 last_walked_iter_clone=100305 energy=-13.635843626685876 stress="0.025346324724823347 -1.8623466149785753e-06 1.0192242513901452e-05 -1.8623466149785753e-06 0.025343376560208363 2.0941755697560804e-05 1.0192242513901452e-05 2.0941755697560804e-05 0.011511959114501905" pbc="T T F"