20
Lattice="5.612310241546866 0.0 0.0 0.0 4.860403243099165 0.0 0.0 0.0 24.582432123328676" Properties=species:S:1:pos:R:3:tags:I:1:masses:R:1:momenta:R:3:forces:R:3 KEmax=25.851991011651638 iter=107039 volume=670.5618179858607 ns_energy=-13.62146081434757 last_walked_iter_clone=106916 energy=-13.621460814361312 stress="0.009466610642718242 -2.4144120679894516e-09 4.8546692529186356e-09 -2.4144120679894516e-09 0.009466597113508403 -1.363165616854559e-08 4.8546692529186356e-09 -1.363165616854559e-08 0.0048548568764768246" pbc="T T T"
H        1.40307756       0.81006721      10.00000000        3       1.00000000       0.00000000       0.00000000       0.00000000       0.00000000       0.00000000       0.00000000
H        4.20923268       0.81006721      10.00000000        3       1.00000000       0.00000000       0.00000000       0.00000000       0.00000000       0.00000000       0.00000000
H        0.00000000       3.24026883      10.00000000        3       1.00000000       0.00000000       0.00000000       0.00000000       0.00000000       0.00000000       0.00000000
H        2.80615512       3.24026883      10.00000000        3       1.00000000       0.00000000       0.00000000       0.00000000       0.00000000       0.00000000       0.00000000
H        0.00000000       1.62013441      12.29121606        2       1.00000000       0.00000000       0.00000000       0.00000000       0.00000000       0.00000000       0.00000000
H        2.80615512       1.62013441      12.29121606        2       1.00000000       0.00000000       0.00000000       0.00000000       0.00000000       0.00000000       0.00000000
H        1.40307756       4.05033604      12.29121606        2       1.00000000       0.00000000       0.00000000       0.00000000       0.00000000       0.00000000       0.00000000
H        4.20923268       4.05033604      12.29121606        2       1.00000000       0.00000000       0.00000000       0.00000000       0.00000000       0.00000000       0.00000000
H        0.00000000       0.00000000      14.58243212        1       1.00000000       0.00000000       0.00000000       0.00000000       0.00000000       0.00000000       0.00000000
H        2.80615512       0.00000000      14.58243212        1       1.00000000       0.00000000       0.00000000       0.00000000       0.00000000       0.00000000       0.00000000
H        1.40307756       2.43020162      14.58243212        1       1.00000000       0.00000000       0.00000000       0.00000000       0.00000000       0.00000000       0.00000000
H        4.20923268       2.43020162      14.58243212        1       1.00000000       0.00000000       0.00000000       0.00000000       0.00000000       0.00000000       0.00000000
H        2.80615537       1.62013519       7.77136643        0       1.00000000      -0.00000235      -0.00000181      -0.00000112       0.00000073       0.00000177       0.00000168
H        5.61231042       1.62013558       7.77136676        0       1.00000000       0.00000014       0.00000216      -0.00000026       0.00000121      -0.00000178       0.00000127
H        4.20923378       4.05033701      16.81106514        0       1.00000000       0.00000050      -0.00000118       0.00000133       0.00000007       0.00000031       0.00000234
H        4.20923358       4.05033760       7.77136718        0       1.00000000      -0.00000408      -0.00000113       0.00000008      -0.00000092      -0.00000197      -0.00000309
H        1.40307810       4.05033671       7.77136702        0       1.00000000      -0.00000128      -0.00000019      -0.00000094      -0.00000016      -0.00000017      -0.00000485
H        5.61231100       1.62013434      16.81106550        0       1.00000000      -0.00000018      -0.00000087      -0.00000153      -0.00000174      -0.00000213      -0.00000570
H        2.80615708       1.62013568      16.81106500        0       1.00000000      -0.00000063       0.00000174      -0.00000011       0.00000196       0.00000093      -0.00000249
H        1.40307842       4.05033650      16.81106380        0       1.00000000       0.00000074       0.00000130      -0.00000201      -0.00000087       0.00000283       0.00000255
20
Lattice="5.612310241546866 0.0 0.0 0.0 4.860403243099165 0.0 0.0 0.0 24.582432123328676" Properties=species:S:1:pos:R:3:tags:I:1:masses:R:1:momenta:R:3:forces:R:3 KEmax=25.851991011651638 iter=107039 volume=670.5618179858607 ns_energy=-13.62146081434722 last_walked_iter_clone=106953 energy=-13.621460814361312 stress="0.009466610642718242 -2.4144120679894516e-09 4.8546692529186356e-09 -2.4144120679894516e-09 0.009466597113508403 -1.363165616854559e-08 4.8546692529186356e-09 -1.363165616854559e-08 0.0048548568764768246" pbc="T T T"
H        1.40307756       0.81006721      10.00000000        3       1.00000000       0.00000000       0.00000000       0.00000000       0.00000000       0.00000000       0.00000000
H        4.20923268       0.81006721      10.00000000        3       1.00000000       0.00000000       0.00000000       0.00000000       0.00000000       0.00000000       0.00000000
H        0.00000000       3.24026883      10.00000000        3       1.00000000       0.00000000       0.00000000       0.00000000       0.00000000       0.00000000       0.00000000
H        2.80615512       3.24026883      10.00000000        3       1.00000000       0.00000000       0.00000000       0.00000000       0.00000000       0.00000000       0.00000000
H        0.00000000       1.62013441      12.29121606        2       1.00000000       0.00000000       0.00000000       0.00000000       0.00000000       0.00000000       0.00000000
H        2.80615512       1.62013441      12.29121606        2       1.00000000       0.00000000       0.00000000       0.00000000       0.00000000       0.00000000       0.00000000
H        1.40307756       4.05033604      12.29121606        2       1.00000000       0.00000000       0.00000000       0.00000000       0.00000000       0.00000000       0.00000000
H        4.20923268       4.05033604      12.29121606        2       1.00000000       0.00000000       0.00000000       0.00000000       0.00000000       0.00000000       0.00000000
H        0.00000000       0.00000000      14.58243212        1       1.00000000       0.00000000       0.00000000       0.00000000       0.00000000       0.00000000       0.00000000
H        2.80615512       0.00000000      14.58243212        1       1.00000000       0.00000000       0.00000000       0.00000000       0.00000000       0.00000000       0.00000000
H        1.40307756       2.43020162      14.58243212        1       1.00000000       0.00000000       0.00000000       0.00000000       0.00000000       0.00000000       0.00000000
H        4.20923268       2.43020162      14.58243212        1       1.00000000       0.00000000       0.00000000       0.00000000       0.00000000       0.00000000       0.00000000
H        2.80615427       1.62013454       7.77136617        0       1.00000000       0.00000110      -0.00000021       0.00000102       0.00000073       0.00000177       0.00000168
H        0.00000018       1.62013468       7.77136648        0       1.00000000      -0.00000174      -0.00000137      -0.00000020       0.00000121      -0.00000178       0.00000127
H        4.20923131       4.05033687      16.81106546        0       1.00000000      -0.00000075       0.00000126      -0.00000003       0.00000007       0.00000031       0.00000234
H        4.20923188       4.05033532       7.77136678        0       1.00000000      -0.00000002       0.00000217       0.00000006      -0.00000092      -0.00000197      -0.00000309
H        1.40307775       4.05033646       7.77136634        0       1.00000000      -0.00000152      -0.00000038       0.00000003      -0.00000016      -0.00000017      -0.00000485
H       -0.00000073       1.62013543      16.81106557        0       1.00000000       0.00000074       0.00000108      -0.00000117      -0.00000174      -0.00000213      -0.00000570
H        2.80615332       1.62013572      16.81106407        0       1.00000000       0.00000224       0.00000129       0.00000136       0.00000196       0.00000093      -0.00000249
H        1.40307661       4.05033730      16.81106452        0       1.00000000      -0.00000032      -0.00000068       0.00000432      -0.00000087       0.00000283       0.00000255
20
Lattice="5.612310241546866 0.0 0.0 0.0 4.860403243099165 0.0 0.0 0.0 24.582432123328676" Properties=species:S:1:pos:R:3:tags:I:1:masses:R:1:momenta:R:3:forces:R:3 KEmax=25.851991011651638 iter=107039 volume=670.5618179858607 ns_energy=-13.621460814348314 last_walked_iter_clone=106950 energy=-13.621460814361312 stress="0.009466610642718242 -2.4144120679894516e-09 4.8546692529186356e-09 -2.4144120679894516e-09 0.009466597113508403 -1.363165616854559e-08 4.8546692529186356e-09 -1.363165616854559e-08 0.0048548568764768246" pbc="T T T"
H        1.40307756       0.81006721      10.00000000        3       1.00000000       0.00000000       0.00000000       0.00000000       0.00000000       0.00000000       0.00000000
H        4.20923268       0.81006721      10.00000000        3       1.00000000       0.00000000       0.00000000       0.00000000       0.00000000       0.00000000       0.00000000
H        0.00000000       3.24026883      10.00000000        3       1.00000000       0.00000000       0.00000000       0.00000000       0.00000000       0.00000000       0.00000000
H        2.80615512       3.24026883      10.00000000        3       1.00000000       0.00000000       0.00000000       0.00000000       0.00000000       0.00000000       0.00000000
H        0.00000000       1.62013441      12.29121606        2       1.00000000       0.00000000       0.00000000       0.00000000       0.00000000       0.00000000       0.00000000
H        2.80615512       1.62013441      12.29121606        2       1.00000000       0.00000000       0.00000000       0.00000000       0.00000000       0.00000000       0.00000000
H        1.40307756       4.05033604      12.29121606        2       1.00000000       0.00000000       0.00000000       0.00000000       0.00000000       0.00000000       0.00000000
H        4.20923268       4.05033604      12.29121606        2       1.00000000       0.00000000       0.00000000       0.00000000       0.00000000       0.00000000       0.00000000
H        0.00000000       0.00000000      14.58243212        1       1.00000000       0.00000000       0.00000000       0.00000000       0.00000000       0.00000000       0.00000000
H        2.80615512       0.00000000      14.58243212        1       1.00000000       0.00000000       0.00000000       0.00000000       0.00000000       0.00000000       0.00000000
H        1.40307756       2.43020162      14.58243212        1       1.00000000       0.00000000       0.00000000       0.00000000       0.00000000       0.00000000       0.00000000
H        4.20923268       2.43020162      14.58243212        1       1.00000000       0.00000000       0.00000000       0.00000000       0.00000000       0.00000000       0.00000000
H        2.80615327       1.62013514       7.77136781        0       1.00000000      -0.00000050       0.00000023      -0.00000107       0.00000073       0.00000177       0.00000168
H       -0.00000192       1.62013461       7.77136638        0       1.00000000      -0.00000167       0.00000119      -0.00000128       0.00000121      -0.00000178       0.00000127
H        4.20923427       4.05033574      16.81106396        0       1.00000000       0.00000019      -0.00000095      -0.00000195       0.00000007       0.00000031       0.00000234
H        4.20923249       4.05033673       7.77136724        0       1.00000000      -0.00000128       0.00000204       0.00000018      -0.00000092      -0.00000197      -0.00000309
H        1.40307700       4.05033636       7.77136727        0       1.00000000       0.00000020      -0.00000273      -0.00000003      -0.00000016      -0.00000017      -0.00000485
H        5.61231136       1.62013467      16.81106408        0       1.00000000      -0.00000240       0.00000123      -0.00000002      -0.00000174      -0.00000213      -0.00000570
H        2.80615671       1.62013508      16.81106626        0       1.00000000       0.00000036      -0.00000207       0.00000016       0.00000196       0.00000093      -0.00000249
H        1.40307887       4.05033710      16.81106478        0       1.00000000       0.00000180       0.00000055      -0.00000153      -0.00000087       0.00000283       0.00000255
20
Lattice="5.612310241546866 0.0 0.0 0.0 4.860403243099165 0.0 0.0 0.0 24.582432123328676" Properties=species:S:1:pos:R:3:tags:I:1:masses:R:1:momenta:R:3:forces:R:3 KEmax=25.851991011651638 iter=107039 volume=670.5618179858607 ns_energy=-13.621460814346982 last_walked_iter_clone=106980 energy=-13.621460814361312 stress="0.009466610642718242 -2.4144120679894516e-09 4.8546692529186356e-09 -2.4144120679894516e-09 0.009466597113508403 -1.363165616854559e-08 4.8546692529186356e-09 -1.363165616854559e-08 0.0048548568764768246" pbc="T T T"
H        1.40307756       0.81006721      10.00000000        3       1.00000000       0.00000000       0.00000000       0.00000000       0.00000000       0.00000000       0.00000000
H        4.20923268       0.81006721      10.00000000        3       1.00000000       0.00000000       0.00000000       0.00000000       0.00000000       0.00000000       0.00000000
H        0.00000000       3.24026883      10.00000000        3       1.00000000       0.00000000       0.00000000       0.00000000       0.00000000       0.00000000       0.00000000
H        2.80615512       3.24026883      10.00000000        3       1.00000000       0.00000000       0.00000000       0.00000000       0.00000000       0.00000000       0.00000000
H        0.00000000       1.62013441      12.29121606        2       1.00000000       0.00000000       0.00000000       0.00000000       0.00000000       0.00000000       0.00000000
H        2.80615512       1.62013441      12.29121606        2       1.00000000       0.00000000       0.00000000       0.00000000       0.00000000       0.00000000       0.00000000
H        1.40307756       4.05033604      12.29121606        2       1.00000000       0.00000000       0.00000000       0.00000000       0.00000000       0.00000000       0.00000000
H        4.20923268       4.05033604      12.29121606        2       1.00000000       0.00000000       0.00000000       0.00000000       0.00000000       0.00000000       0.00000000
H        0.00000000       0.00000000      14.58243212        1       1.00000000       0.00000000       0.00000000       0.00000000       0.00000000       0.00000000       0.00000000
H        2.80615512       0.00000000      14.58243212        1       1.00000000       0.00000000       0.00000000       0.00000000       0.00000000       0.00000000       0.00000000
H        1.40307756       2.43020162      14.58243212        1       1.00000000       0.00000000       0.00000000       0.00000000       0.00000000       0.00000000       0.00000000
H        4.20923268       2.43020162      14.58243212        1       1.00000000       0.00000000       0.00000000       0.00000000       0.00000000       0.00000000       0.00000000
H        2.80615520       1.62013333       7.77136746        0       1.00000000      -0.00000139      -0.00000124      -0.00000072       0.00000073       0.00000177       0.00000168
H        0.00000043       1.62013369       7.77136649        0       1.00000000      -0.00000005       0.00000082       0.00000108       0.00000121      -0.00000178       0.00000127
H        4.20923448       4.05033599      16.81106496        0       1.00000000       0.00000067      -0.00000054      -0.00000000       0.00000007       0.00000031       0.00000234
H        4.20923277       4.05033703       7.77136758        0       1.00000000      -0.00000182      -0.00000137       0.00000123      -0.00000092      -0.00000197      -0.00000309
H        1.40307741       4.05033570       7.77136713        0       1.00000000      -0.00000038      -0.00000053      -0.00000246      -0.00000016      -0.00000017      -0.00000485
H        5.61231328       1.62013527      16.81106518        0       1.00000000       0.00000130       0.00000039      -0.00000013      -0.00000174      -0.00000213      -0.00000570
H        2.80615713       1.62013478      16.81106627        0       1.00000000      -0.00000186      -0.00000108       0.00000043       0.00000196       0.00000093      -0.00000249
H        1.40308041       4.05033643      16.81106674        0       1.00000000       0.00000089       0.00000043      -0.00000024      -0.00000087       0.00000283       0.00000255
20
Lattice="5.612310241546866 0.0 0.0 0.0 4.860403243099165 0.0 0.0 0.0 24.582432123328676" Properties=species:S:1:pos:R:3:tags:I:1:masses:R:1:momenta:R:3:forces:R:3 KEmax=25.851991011651638 iter=107039 volume=670.5618179858607 ns_energy=-13.621460814347106 last_walked_iter_clone=106885 energy=-13.621460814361312 stress="0.009466610642718242 -2.4144120679894516e-09 4.8546692529186356e-09 -2.4144120679894516e-09 0.009466597113508403 -1.363165616854559e-08 4.8546692529186356e-09 -1.363165616854559e-08 0.0048548568764768246" pbc="T T T"
H        1.40307756       0.81006721      10.00000000        3       1.00000000       0.00000000       0.00000000       0.00000000       0.00000000       0.00000000       0.00000000
H        4.20923268       0.81006721      10.00000000        3       1.00000000       0.00000000       0.00000000       0.00000000       0.00000000       0.00000000       0.00000000
H        0.00000000       3.24026883      10.00000000        3       1.00000000       0.00000000       0.00000000       0.00000000       0.00000000       0.00000000       0.00000000
H        2.80615512       3.24026883      10.00000000        3       1.00000000       0.00000000       0.00000000       0.00000000       0.00000000       0.00000000       0.00000000
H        0.00000000       1.62013441      12.29121606        2       1.00000000       0.00000000       0.00000000       0.00000000       0.00000000       0.00000000       0.00000000
H        2.80615512       1.62013441      12.29121606        2       1.00000000       0.00000000       0.00000000       0.00000000       0.00000000       0.00000000       0.00000000
H        1.40307756       4.05033604      12.29121606        2       1.00000000       0.00000000       0.00000000       0.00000000       0.00000000       0.00000000       0.00000000
H        4.20923268       4.05033604      12.29121606        2       1.00000000       0.00000000       0.00000000       0.00000000       0.00000000       0.00000000       0.00000000
H        0.00000000       0.00000000      14.58243212        1       1.00000000       0.00000000       0.00000000       0.00000000       0.00000000       0.00000000       0.00000000
H        2.80615512       0.00000000      14.58243212        1       1.00000000       0.00000000       0.00000000       0.00000000       0.00000000       0.00000000       0.00000000
H        1.40307756       2.43020162      14.58243212        1       1.00000000       0.00000000       0.00000000       0.00000000       0.00000000       0.00000000       0.00000000
H        4.20923268       2.43020162      14.58243212        1       1.00000000       0.00000000       0.00000000       0.00000000       0.00000000       0.00000000       0.00000000
H        2.80615505       1.62013507       7.77136745        0       1.00000000      -0.00000185      -0.00000048      -0.00000261       0.00000073       0.00000177       0.00000168
H        0.00000069       1.62013514       7.77136716        0       1.00000000       0.00000166      -0.00000026       0.00000149       0.00000121      -0.00000178       0.00000127
H        4.20923241       4.05033504      16.81106510        0       1.00000000       0.00000005      -0.00000114      -0.00000142       0.00000007       0.00000031       0.00000234
H        4.20923299       4.05033675       7.77136818        0       1.00000000      -0.00000054       0.00000021      -0.00000200      -0.00000092      -0.00000197      -0.00000309
H        1.40307812       4.05033693       7.77136815        0       1.00000000       0.00000043      -0.00000073      -0.00000163      -0.00000016      -0.00000017      -0.00000485
H        5.61231033       1.62013406      16.81106580        0       1.00000000      -0.00000029       0.00000036      -0.00000330      -0.00000174      -0.00000213      -0.00000570
H        2.80615628       1.62013364      16.81106494        0       1.00000000      -0.00000152      -0.00000007      -0.00000154       0.00000196       0.00000093      -0.00000249
H        1.40307796       4.05033558      16.81106336        0       1.00000000      -0.00000160       0.00000113      -0.00000057      -0.00000087       0.00000283       0.00000255
20
Lattice="5.612310241546866 0.0 0.0 0.0 4.860403243099165 0.0 0.0 0.0 24.582432123328676" Properties=species:S:1:pos:R:3:tags:I:1:masses:R:1:momenta:R:3:forces:R:3 KEmax=25.851991011651638 iter=107039 volume=670.5618179858607 ns_energy=-13.621460814347746 last_walked_iter_clone=107006 energy=-13.621460814361312 stress="0.009466610642718242 -2.4144120679894516e-09 4.8546692529186356e-09 -2.4144120679894516e-09 0.009466597113508403 -1.363165616854559e-08 4.8546692529186356e-09 -1.363165616854559e-08 0.0048548568764768246" pbc="T T T"
H        1.40307756       0.81006721      10.00000000        3       1.00000000       0.00000000       0.00000000       0.00000000       0.00000000       0.00000000       0.00000000
H        4.20923268       0.81006721      10.00000000        3       1.00000000       0.00000000       0.00000000       0.00000000       0.00000000       0.00000000       0.00000000
H        0.00000000       3.24026883      10.00000000        3       1.00000000       0.00000000       0.00000000       0.00000000       0.00000000       0.00000000       0.00000000
H        2.80615512       3.24026883      10.00000000        3       1.00000000       0.00000000       0.00000000       0.00000000       0.00000000       0.00000000       0.00000000
H        0.00000000       1.62013441      12.29121606        2       1.00000000       0.00000000       0.00000000       0.00000000       0.00000000       0.00000000       0.00000000
H        2.80615512       1.62013441      12.29121606        2       1.00000000       0.00000000       0.00000000       0.00000000       0.00000000       0.00000000       0.00000000
H        1.40307756       4.05033604      12.29121606        2       1.00000000       0.00000000       0.00000000       0.00000000       0.00000000       0.00000000       0.00000000
H        4.20923268       4.05033604      12.29121606        2       1.00000000       0.00000000       0.00000000       0.00000000       0.00000000       0.00000000       0.00000000
H        0.00000000       0.00000000      14.58243212        1       1.00000000       0.00000000       0.00000000       0.00000000       0.00000000       0.00000000       0.00000000
H        2.80615512       0.00000000      14.58243212        1       1.00000000       0.00000000       0.00000000       0.00000000       0.00000000       0.00000000       0.00000000
H        1.40307756       2.43020162      14.58243212        1       1.00000000       0.00000000       0.00000000       0.00000000       0.00000000       0.00000000       0.00000000
H        4.20923268       2.43020162      14.58243212        1       1.00000000       0.00000000       0.00000000       0.00000000       0.00000000       0.00000000       0.00000000
H        2.80615488       1.62013391       7.77136888        0       1.00000000       0.00000107      -0.00000008       0.00000304       0.00000073       0.00000177       0.00000168
H       -0.00000027       1.62013432       7.77136761        0       1.00000000       0.00000056       0.00000100       0.00000256       0.00000121      -0.00000178       0.00000127
H        4.20923367       4.05033497      16.81106494        0       1.00000000      -0.00000100       0.00000027      -0.00000118       0.00000007       0.00000031       0.00000234
H        4.20923134       4.05033649       7.77136805        0       1.00000000      -0.00000000      -0.00000173      -0.00000027      -0.00000092      -0.00000197      -0.00000309
H        1.40307692       4.05033474       7.77136772        0       1.00000000      -0.00000227       0.00000004      -0.00000001      -0.00000016      -0.00000017      -0.00000485
H        0.00000069       1.62013382      16.81106603        0       1.00000000       0.00000238       0.00000112      -0.00000111      -0.00000174      -0.00000213      -0.00000570
H        2.80615523       1.62013400      16.81106576        0       1.00000000      -0.00000073       0.00000081      -0.00000021       0.00000196       0.00000093      -0.00000249
H        1.40307791       4.05033579      16.81106462        0       1.00000000      -0.00000166      -0.00000087      -0.00000169      -0.00000087       0.00000283       0.00000255
20
Lattice="5.612310241546866 0.0 0.0 0.0 4.860403243099165 0.0 0.0 0.0 24.582432123328676" Properties=species:S:1:pos:R:3:tags:I:1:masses:R:1:momenta:R:3:forces:R:3 KEmax=25.851991011651638 iter=107039 volume=670.5618179858607 ns_energy=-13.621460814347127 last_walked_iter_clone=107036 energy=-13.621460814361312 stress="0.009466610642718242 -2.4144120679894516e-09 4.8546692529186356e-09 -2.4144120679894516e-09 0.009466597113508403 -1.363165616854559e-08 4.8546692529186356e-09 -1.363165616854559e-08 0.0048548568764768246" pbc="T T T"
H        1.40307756       0.81006721      10.00000000        3       1.00000000       0.00000000       0.00000000       0.00000000       0.00000000       0.00000000       0.00000000
H        4.20923268       0.81006721      10.00000000        3       1.00000000       0.00000000       0.00000000       0.00000000       0.00000000       0.00000000       0.00000000
H        0.00000000       3.24026883      10.00000000        3       1.00000000       0.00000000       0.00000000       0.00000000       0.00000000       0.00000000       0.00000000
H        2.80615512       3.24026883      10.00000000        3       1.00000000       0.00000000       0.00000000       0.00000000       0.00000000       0.00000000       0.00000000
H        0.00000000       1.62013441      12.29121606        2       1.00000000       0.00000000       0.00000000       0.00000000       0.00000000       0.00000000       0.00000000
H        2.80615512       1.62013441      12.29121606        2       1.00000000       0.00000000       0.00000000       0.00000000       0.00000000       0.00000000       0.00000000
H        1.40307756       4.05033604      12.29121606        2       1.00000000       0.00000000       0.00000000       0.00000000       0.00000000       0.00000000       0.00000000
H        4.20923268       4.05033604      12.29121606        2       1.00000000       0.00000000       0.00000000       0.00000000       0.00000000       0.00000000       0.00000000
H        0.00000000       0.00000000      14.58243212        1       1.00000000       0.00000000       0.00000000       0.00000000       0.00000000       0.00000000       0.00000000
H        2.80615512       0.00000000      14.58243212        1       1.00000000       0.00000000       0.00000000       0.00000000       0.00000000       0.00000000       0.00000000
H        1.40307756       2.43020162      14.58243212        1       1.00000000       0.00000000       0.00000000       0.00000000       0.00000000       0.00000000       0.00000000
H        4.20923268       2.43020162      14.58243212        1       1.00000000       0.00000000       0.00000000       0.00000000       0.00000000       0.00000000       0.00000000
H        2.80615511       1.62013538       7.77136772        0       1.00000000      -0.00000020       0.00000036      -0.00000209       0.00000073       0.00000177       0.00000168
H       -0.00000076       1.62013458       7.77136706        0       1.00000000       0.00000123       0.00000061      -0.00000051       0.00000121      -0.00000178       0.00000127
H        4.20923109       4.05033527      16.81106611        0       1.00000000       0.00000037      -0.00000034      -0.00000111       0.00000007       0.00000031       0.00000234
H        4.20923150       4.05033697       7.77136612        0       1.00000000      -0.00000011      -0.00000237      -0.00000027      -0.00000092      -0.00000197      -0.00000309
H        1.40307647       4.05033704       7.77136709        0       1.00000000       0.00000095      -0.00000129       0.00000170      -0.00000016      -0.00000017      -0.00000485
H        5.61230933       1.62013378      16.81106332        0       1.00000000       0.00000130      -0.00000158       0.00000133      -0.00000174      -0.00000213      -0.00000570
H        2.80615454       1.62013344      16.81106390        0       1.00000000      -0.00000061       0.00000074      -0.00000164       0.00000196       0.00000093      -0.00000249
H        1.40307660       4.05033597      16.81106368        0       1.00000000      -0.00000156      -0.00000008       0.00000284      -0.00000087       0.00000283       0.00000255
20
Lattice="5.612310241546866 0.0 0.0 0.0 4.860403243099165 0.0 0.0 0.0 24.582432123328676" Properties=species:S:1:pos:R:3:tags:I:1:masses:R:1:momenta:R:3:forces:R:3 KEmax=25.851991011651638 iter=107039 volume=670.5618179858607 ns_energy=-13.621460814347602 last_walked_iter_clone=106987 energy=-13.621460814361312 stress="0.009466610642718242 -2.4144120679894516e-09 4.8546692529186356e-09 -2.4144120679894516e-09 0.009466597113508403 -1.363165616854559e-08 4.8546692529186356e-09 -1.363165616854559e-08 0.0048548568764768246" pbc="T T T"
H        1.40307756       0.81006721      10.00000000        3       1.00000000       0.00000000       0.00000000       0.00000000       0.00000000       0.00000000       0.00000000