20
Lattice="5.612310241546866 0.0 0.0 0.0 4.860403243099165 0.0 0.0 0.0 24.582432123328676" Properties=species:S:1:pos:R:3:tags:I:1:masses:R:1:momenta:R:3:forces:R:3 KEmax=25.851991011651638 iter=119999 volume=670.5618179858607 ns_energy=-13.621460814372572 last_walked_iter_clone=119778 energy=-13.621460814379235 stress="0.009466604083903237 2.148342076807392e-09 -4.319673603661464e-09 2.148342076807392e-09 0.009466607526162485 3.430682910538719e-09 -4.319673603661464e-09 3.430682910538719e-09 0.004854865060240324" pbc="T T T"
H        1.40307756       0.81006721      10.00000000        3       1.00000000       0.00000000       0.00000000       0.00000000       0.00000000       0.00000000       0.00000000
H        4.20923268       0.81006721      10.00000000        3       1.00000000       0.00000000       0.00000000       0.00000000       0.00000000       0.00000000       0.00000000
H        0.00000000       3.24026883      10.00000000        3       1.00000000       0.00000000       0.00000000       0.00000000       0.00000000       0.00000000       0.00000000
H        2.80615512       3.24026883      10.00000000        3       1.00000000       0.00000000       0.00000000       0.00000000       0.00000000       0.00000000       0.00000000
H        0.00000000       1.62013441      12.29121606        2       1.00000000       0.00000000       0.00000000       0.00000000       0.00000000       0.00000000       0.00000000
H        2.80615512       1.62013441      12.29121606        2       1.00000000       0.00000000       0.00000000       0.00000000       0.00000000       0.00000000       0.00000000
H        1.40307756       4.05033604      12.29121606        2       1.00000000       0.00000000       0.00000000       0.00000000       0.00000000       0.00000000       0.00000000
H        4.20923268       4.05033604      12.29121606        2       1.00000000       0.00000000       0.00000000       0.00000000       0.00000000       0.00000000       0.00000000
H        0.00000000       0.00000000      14.58243212        1       1.00000000       0.00000000       0.00000000       0.00000000       0.00000000       0.00000000       0.00000000
H        2.80615512       0.00000000      14.58243212        1       1.00000000       0.00000000       0.00000000       0.00000000       0.00000000       0.00000000       0.00000000
H        1.40307756       2.43020162      14.58243212        1       1.00000000       0.00000000       0.00000000       0.00000000       0.00000000       0.00000000       0.00000000
H        4.20923268       2.43020162      14.58243212        1       1.00000000       0.00000000       0.00000000       0.00000000       0.00000000       0.00000000       0.00000000
H        2.80615585       1.62013373       7.77136698        0       1.00000000       0.00000088       0.00000013       0.00000014      -0.00000148       0.00000171       0.00000080
H        5.61231069       1.62013372       7.77136688        0       1.00000000      -0.00000068      -0.00000046      -0.00000008      -0.00000129      -0.00000040       0.00000077
H        4.20923184       4.05033465      16.81106486        0       1.00000000      -0.00000184       0.00000072      -0.00000104      -0.00000024      -0.00000116       0.00000232
H        4.20923332       4.05033538       7.77136724        0       1.00000000      -0.00000012       0.00000093      -0.00000022       0.00000024      -0.00000042       0.00000093
H        1.40307812       4.05033567       7.77136681        0       1.00000000      -0.00000065       0.00000042       0.00000036       0.00000243       0.00000042       0.00000135
H        0.00000025       1.62013308      16.81106515        0       1.00000000      -0.00000102      -0.00000000       0.00000050       0.00000047      -0.00000031      -0.00000090
H        2.80615542       1.62013368      16.81106564        0       1.00000000      -0.00000035       0.00000084      -0.00000001       0.00000004       0.00000006       0.00000085
H        1.40307727       4.05033578      16.81106431        0       1.00000000       0.00000142      -0.00000041       0.00000030       0.00000092       0.00000168       0.00000074
20
Lattice="5.612310241546866 0.0 0.0 0.0 4.860403243099165 0.0 0.0 0.0 24.582432123328676" Properties=species:S:1:pos:R:3:tags:I:1:masses:R:1:momenta:R:3:forces:R:3 KEmax=25.851991011651638 iter=119999 volume=670.5618179858607 ns_energy=-13.621460814372718 last_walked_iter_clone=119853 energy=-13.621460814379235 stress="0.009466604083903237 2.148342076807392e-09 -4.319673603661464e-09 2.148342076807392e-09 0.009466607526162485 3.430682910538719e-09 -4.319673603661464e-09 3.430682910538719e-09 0.004854865060240324" pbc="T T T"
H        1.40307756       0.81006721      10.00000000        3       1.00000000       0.00000000       0.00000000       0.00000000       0.00000000       0.00000000       0.00000000
H        4.20923268       0.81006721      10.00000000        3       1.00000000       0.00000000       0.00000000       0.00000000       0.00000000       0.00000000       0.00000000
H        0.00000000       3.24026883      10.00000000        3       1.00000000       0.00000000       0.00000000       0.00000000       0.00000000       0.00000000       0.00000000
H        2.80615512       3.24026883      10.00000000        3       1.00000000       0.00000000       0.00000000       0.00000000       0.00000000       0.00000000       0.00000000
H        0.00000000       1.62013441      12.29121606        2       1.00000000       0.00000000       0.00000000       0.00000000       0.00000000       0.00000000       0.00000000
H        2.80615512       1.62013441      12.29121606        2       1.00000000       0.00000000       0.00000000       0.00000000       0.00000000       0.00000000       0.00000000
H        1.40307756       4.05033604      12.29121606        2       1.00000000       0.00000000       0.00000000       0.00000000       0.00000000       0.00000000       0.00000000
H        4.20923268       4.05033604      12.29121606        2       1.00000000       0.00000000       0.00000000       0.00000000       0.00000000       0.00000000       0.00000000
H        0.00000000       0.00000000      14.58243212        1       1.00000000       0.00000000       0.00000000       0.00000000       0.00000000       0.00000000       0.00000000
H        2.80615512       0.00000000      14.58243212        1       1.00000000       0.00000000       0.00000000       0.00000000       0.00000000       0.00000000       0.00000000
H        1.40307756       2.43020162      14.58243212        1       1.00000000       0.00000000       0.00000000       0.00000000       0.00000000       0.00000000       0.00000000
H        4.20923268       2.43020162      14.58243212        1       1.00000000       0.00000000       0.00000000       0.00000000       0.00000000       0.00000000       0.00000000
H        2.80615482       1.62013400       7.77136715        0       1.00000000       0.00000090      -0.00000053       0.00000064      -0.00000148       0.00000171       0.00000080
H        5.61230941       1.62013445       7.77136787        0       1.00000000       0.00000142       0.00000027       0.00000013      -0.00000129      -0.00000040       0.00000077
H        4.20923321       4.05033561      16.81106472        0       1.00000000      -0.00000106      -0.00000112      -0.00000105      -0.00000024      -0.00000116       0.00000232
H        4.20923308       4.05033600       7.77136700        0       1.00000000      -0.00000045       0.00000042       0.00000040       0.00000024      -0.00000042       0.00000093
H        1.40307845       4.05033624       7.77136719        0       1.00000000      -0.00000018       0.00000113       0.00000085       0.00000243       0.00000042       0.00000135
H        0.00000029       1.62013439      16.81106490        0       1.00000000       0.00000011      -0.00000099      -0.00000027       0.00000047      -0.00000031      -0.00000090
H        2.80615533       1.62013382      16.81106477        0       1.00000000       0.00000089      -0.00000001      -0.00000023       0.00000004       0.00000006       0.00000085
H        1.40307858       4.05033618      16.81106510        0       1.00000000       0.00000081       0.00000121      -0.00000082       0.00000092       0.00000168       0.00000074
20
Lattice="5.612310241546866 0.0 0.0 0.0 4.860403243099165 0.0 0.0 0.0 24.582432123328676" Properties=species:S:1:pos:R:3:tags:I:1:masses:R:1:momenta:R:3:forces:R:3 KEmax=25.851991011651638 iter=119999 volume=670.5618179858607 ns_energy=-13.621460814372403 last_walked_iter_clone=119571 energy=-13.621460814379235 stress="0.009466604083903237 2.148342076807392e-09 -4.319673603661464e-09 2.148342076807392e-09 0.009466607526162485 3.430682910538719e-09 -4.319673603661464e-09 3.430682910538719e-09 0.004854865060240324" pbc="T T T"
H        1.40307756       0.81006721      10.00000000        3       1.00000000       0.00000000       0.00000000       0.00000000       0.00000000       0.00000000       0.00000000
H        4.20923268       0.81006721      10.00000000        3       1.00000000       0.00000000       0.00000000       0.00000000       0.00000000       0.00000000       0.00000000
H        0.00000000       3.24026883      10.00000000        3       1.00000000       0.00000000       0.00000000       0.00000000       0.00000000       0.00000000       0.00000000
H        2.80615512       3.24026883      10.00000000        3       1.00000000       0.00000000       0.00000000       0.00000000       0.00000000       0.00000000       0.00000000
H        0.00000000       1.62013441      12.29121606        2       1.00000000       0.00000000       0.00000000       0.00000000       0.00000000       0.00000000       0.00000000
H        2.80615512       1.62013441      12.29121606        2       1.00000000       0.00000000       0.00000000       0.00000000       0.00000000       0.00000000       0.00000000
H        1.40307756       4.05033604      12.29121606        2       1.00000000       0.00000000       0.00000000       0.00000000       0.00000000       0.00000000       0.00000000
H        4.20923268       4.05033604      12.29121606        2       1.00000000       0.00000000       0.00000000       0.00000000       0.00000000       0.00000000       0.00000000
H        0.00000000       0.00000000      14.58243212        1       1.00000000       0.00000000       0.00000000       0.00000000       0.00000000       0.00000000       0.00000000
H        2.80615512       0.00000000      14.58243212        1       1.00000000       0.00000000       0.00000000       0.00000000       0.00000000       0.00000000       0.00000000
H        1.40307756       2.43020162      14.58243212        1       1.00000000       0.00000000       0.00000000       0.00000000       0.00000000       0.00000000       0.00000000
H        4.20923268       2.43020162      14.58243212        1       1.00000000       0.00000000       0.00000000       0.00000000       0.00000000       0.00000000       0.00000000
H        2.80615537       1.62013430       7.77136739        0       1.00000000       0.00000042      -0.00000105      -0.00000135      -0.00000148       0.00000171       0.00000080
H        5.61231046       1.62013363       7.77136664        0       1.00000000       0.00000081       0.00000018       0.00000064      -0.00000129      -0.00000040       0.00000077
H        4.20923251       4.05033700      16.81106479        0       1.00000000      -0.00000046       0.00000027      -0.00000016      -0.00000024      -0.00000116       0.00000232
H        4.20923332       4.05033579       7.77136650        0       1.00000000      -0.00000003       0.00000051      -0.00000141       0.00000024      -0.00000042       0.00000093
H        1.40307867       4.05033598       7.77136739        0       1.00000000      -0.00000015      -0.00000051      -0.00000079       0.00000243       0.00000042       0.00000135
H        0.00000046       1.62013515      16.81106519        0       1.00000000      -0.00000012      -0.00000095       0.00000108       0.00000047      -0.00000031      -0.00000090
H        2.80615506       1.62013488      16.81106507        0       1.00000000      -0.00000113      -0.00000065      -0.00000107       0.00000004       0.00000006       0.00000085
H        1.40307782       4.05033599      16.81106500        0       1.00000000      -0.00000123      -0.00000001      -0.00000063       0.00000092       0.00000168       0.00000074
20
Lattice="5.612310241546866 0.0 0.0 0.0 4.860403243099165 0.0 0.0 0.0 24.582432123328676" Properties=species:S:1:pos:R:3:tags:I:1:masses:R:1:momenta:R:3:forces:R:3 KEmax=25.851991011651638 iter=119999 volume=670.5618179858607 ns_energy=-13.621460814372456 last_walked_iter_clone=119428 energy=-13.621460814379235 stress="0.009466604083903237 2.148342076807392e-09 -4.319673603661464e-09 2.148342076807392e-09 0.009466607526162485 3.430682910538719e-09 -4.319673603661464e-09 3.430682910538719e-09 0.004854865060240324" pbc="T T T"
H        1.40307756       0.81006721      10.00000000        3       1.00000000       0.00000000       0.00000000       0.00000000       0.00000000       0.00000000       0.00000000
H        4.20923268       0.81006721      10.00000000        3       1.00000000       0.00000000       0.00000000       0.00000000       0.00000000       0.00000000       0.00000000
H        0.00000000       3.24026883      10.00000000        3       1.00000000       0.00000000       0.00000000       0.00000000       0.00000000       0.00000000       0.00000000
H        2.80615512       3.24026883      10.00000000        3       1.00000000       0.00000000       0.00000000       0.00000000       0.00000000       0.00000000       0.00000000
H        0.00000000       1.62013441      12.29121606        2       1.00000000       0.00000000       0.00000000       0.00000000       0.00000000       0.00000000       0.00000000
H        2.80615512       1.62013441      12.29121606        2       1.00000000       0.00000000       0.00000000       0.00000000       0.00000000       0.00000000       0.00000000
H        1.40307756       4.05033604      12.29121606        2       1.00000000       0.00000000       0.00000000       0.00000000       0.00000000       0.00000000       0.00000000
H        4.20923268       4.05033604      12.29121606        2       1.00000000       0.00000000       0.00000000       0.00000000       0.00000000       0.00000000       0.00000000
H        0.00000000       0.00000000      14.58243212        1       1.00000000       0.00000000       0.00000000       0.00000000       0.00000000       0.00000000       0.00000000
H        2.80615512       0.00000000      14.58243212        1       1.00000000       0.00000000       0.00000000       0.00000000       0.00000000       0.00000000       0.00000000
H        1.40307756       2.43020162      14.58243212        1       1.00000000       0.00000000       0.00000000       0.00000000       0.00000000       0.00000000       0.00000000
H        4.20923268       2.43020162      14.58243212        1       1.00000000       0.00000000       0.00000000       0.00000000       0.00000000       0.00000000       0.00000000
H        2.80615571       1.62013444       7.77136788        0       1.00000000       0.00000030       0.00000070       0.00000102      -0.00000148       0.00000171       0.00000080
H        0.00000038       1.62013432       7.77136739        0       1.00000000       0.00000116      -0.00000088      -0.00000013      -0.00000129      -0.00000040       0.00000077
H        4.20923326       4.05033625      16.81106496        0       1.00000000      -0.00000037      -0.00000028      -0.00000127      -0.00000024      -0.00000116       0.00000232
H        4.20923171       4.05033565       7.77136728        0       1.00000000       0.00000096      -0.00000085       0.00000002       0.00000024      -0.00000042       0.00000093
H        1.40307702       4.05033576       7.77136762        0       1.00000000      -0.00000011      -0.00000123       0.00000064       0.00000243       0.00000042       0.00000135
H       -0.00000011       1.62013438      16.81106434        0       1.00000000       0.00000135      -0.00000043       0.00000041       0.00000047      -0.00000031      -0.00000090
H        2.80615499       1.62013402      16.81106533        0       1.00000000      -0.00000065      -0.00000044       0.00000110       0.00000004       0.00000006       0.00000085
H        1.40307761       4.05033601      16.81106435        0       1.00000000      -0.00000046      -0.00000054      -0.00000053       0.00000092       0.00000168       0.00000074
20
Lattice="5.612310241546866 0.0 0.0 0.0 4.860403243099165 0.0 0.0 0.0 24.582432123328676" Properties=species:S:1:pos:R:3:tags:I:1:masses:R:1:momenta:R:3:forces:R:3 KEmax=25.851991011651638 iter=119999 volume=670.5618179858607 ns_energy=-13.621460814373078 last_walked_iter_clone=119346 energy=-13.621460814379235 stress="0.009466604083903237 2.148342076807392e-09 -4.319673603661464e-09 2.148342076807392e-09 0.009466607526162485 3.430682910538719e-09 -4.319673603661464e-09 3.430682910538719e-09 0.004854865060240324" pbc="T T T"
H        1.40307756       0.81006721      10.00000000        3       1.00000000       0.00000000       0.00000000       0.00000000       0.00000000       0.00000000       0.00000000
H        4.20923268       0.81006721      10.00000000        3       1.00000000       0.00000000       0.00000000       0.00000000       0.00000000       0.00000000       0.00000000
H        0.00000000       3.24026883      10.00000000        3       1.00000000       0.00000000       0.00000000       0.00000000       0.00000000       0.00000000       0.00000000
H        2.80615512       3.24026883      10.00000000        3       1.00000000       0.00000000       0.00000000       0.00000000       0.00000000       0.00000000       0.00000000
H        0.00000000       1.62013441      12.29121606        2       1.00000000       0.00000000       0.00000000       0.00000000       0.00000000       0.00000000       0.00000000
H        2.80615512       1.62013441      12.29121606        2       1.00000000       0.00000000       0.00000000       0.00000000       0.00000000       0.00000000       0.00000000
H        1.40307756       4.05033604      12.29121606        2       1.00000000       0.00000000       0.00000000       0.00000000       0.00000000       0.00000000       0.00000000
H        4.20923268       4.05033604      12.29121606        2       1.00000000       0.00000000       0.00000000       0.00000000       0.00000000       0.00000000       0.00000000
H        0.00000000       0.00000000      14.58243212        1       1.00000000       0.00000000       0.00000000       0.00000000       0.00000000       0.00000000       0.00000000
H        2.80615512       0.00000000      14.58243212        1       1.00000000       0.00000000       0.00000000       0.00000000       0.00000000       0.00000000       0.00000000
H        1.40307756       2.43020162      14.58243212        1       1.00000000       0.00000000       0.00000000       0.00000000       0.00000000       0.00000000       0.00000000
H        4.20923268       2.43020162      14.58243212        1       1.00000000       0.00000000       0.00000000       0.00000000       0.00000000       0.00000000       0.00000000
H        2.80615471       1.62013444       7.77136691        0       1.00000000      -0.00000042      -0.00000020      -0.00000057      -0.00000148       0.00000171       0.00000080
H       -0.00000041       1.62013495       7.77136733        0       1.00000000       0.00000040       0.00000013       0.00000056      -0.00000129      -0.00000040       0.00000077
H        4.20923254       4.05033575      16.81106535        0       1.00000000       0.00000012      -0.00000100      -0.00000006      -0.00000024      -0.00000116       0.00000232
H        4.20923260       4.05033640       7.77136607        0       1.00000000      -0.00000087       0.00000098      -0.00000007       0.00000024      -0.00000042       0.00000093
H        1.40307795       4.05033608       7.77136723        0       1.00000000      -0.00000019       0.00000045       0.00000038       0.00000243       0.00000042       0.00000135
H       -0.00000003       1.62013451      16.81106527        0       1.00000000       0.00000198       0.00000095       0.00000111       0.00000047      -0.00000031      -0.00000090
H        2.80615483       1.62013486      16.81106512        0       1.00000000      -0.00000042       0.00000006       0.00000142       0.00000004       0.00000006       0.00000085
H        1.40307737       4.05033606      16.81106440        0       1.00000000      -0.00000125      -0.00000126      -0.00000038       0.00000092       0.00000168       0.00000074
20
Lattice="5.612310241546866 0.0 0.0 0.0 4.860403243099165 0.0 0.0 0.0 24.582432123328676" Properties=species:S:1:pos:R:3:tags:I:1:masses:R:1:momenta:R:3:forces:R:3 KEmax=25.851991011651638 iter=119999 volume=670.5618179858607 ns_energy=-13.621460814372895 last_walked_iter_clone=119950 energy=-13.621460814379235 stress="0.009466604083903237 2.148342076807392e-09 -4.319673603661464e-09 2.148342076807392e-09 0.009466607526162485 3.430682910538719e-09 -4.319673603661464e-09 3.430682910538719e-09 0.004854865060240324" pbc="T T T"
H        1.40307756       0.81006721      10.00000000        3       1.00000000       0.00000000       0.00000000       0.00000000       0.00000000       0.00000000       0.00000000
H        4.20923268       0.81006721      10.00000000        3       1.00000000       0.00000000       0.00000000       0.00000000       0.00000000       0.00000000       0.00000000
H        0.00000000       3.24026883      10.00000000        3       1.00000000       0.00000000       0.00000000       0.00000000       0.00000000       0.00000000       0.00000000
H        2.80615512       3.24026883      10.00000000        3       1.00000000       0.00000000       0.00000000       0.00000000       0.00000000       0.00000000       0.00000000
H        0.00000000       1.62013441      12.29121606        2       1.00000000       0.00000000       0.00000000       0.00000000       0.00000000       0.00000000       0.00000000
H        2.80615512       1.62013441      12.29121606        2       1.00000000       0.00000000       0.00000000       0.00000000       0.00000000       0.00000000       0.00000000
H        1.40307756       4.05033604      12.29121606        2       1.00000000       0.00000000       0.00000000       0.00000000       0.00000000       0.00000000       0.00000000
H        4.20923268       4.05033604      12.29121606        2       1.00000000       0.00000000       0.00000000       0.00000000       0.00000000       0.00000000       0.00000000
H        0.00000000       0.00000000      14.58243212        1       1.00000000       0.00000000       0.00000000       0.00000000       0.00000000       0.00000000       0.00000000
H        2.80615512       0.00000000      14.58243212        1       1.00000000       0.00000000       0.00000000       0.00000000       0.00000000       0.00000000       0.00000000
H        1.40307756       2.43020162      14.58243212        1       1.00000000       0.00000000       0.00000000       0.00000000       0.00000000       0.00000000       0.00000000
H        4.20923268       2.43020162      14.58243212        1       1.00000000       0.00000000       0.00000000       0.00000000       0.00000000       0.00000000       0.00000000
H        2.80615440       1.62013469       7.77136732        0       1.00000000       0.00000118       0.00000052       0.00000051      -0.00000148       0.00000171       0.00000080
H        5.61230971       1.62013439       7.77136749        0       1.00000000      -0.00000091      -0.00000033      -0.00000064      -0.00000129      -0.00000040       0.00000077
H        4.20923365       4.05033627      16.81106558        0       1.00000000       0.00000027       0.00000023       0.00000079      -0.00000024      -0.00000116       0.00000232
H        4.20923184       4.05033604       7.77136771        0       1.00000000       0.00000021      -0.00000092       0.00000062       0.00000024      -0.00000042       0.00000093
H        1.40307777       4.05033628       7.77136714        0       1.00000000      -0.00000066       0.00000004       0.00000009       0.00000243       0.00000042       0.00000135
H        5.61231109       1.62013533      16.81106551        0       1.00000000       0.00000035      -0.00000029      -0.00000000       0.00000047      -0.00000031      -0.00000090
H        2.80615540       1.62013543      16.81106480        0       1.00000000      -0.00000050      -0.00000103       0.00000116       0.00000004       0.00000006       0.00000085
H        1.40307835       4.05033717      16.81106482        0       1.00000000      -0.00000151       0.00000093       0.00000048       0.00000092       0.00000168       0.00000074
20
Lattice="5.612310241546866 0.0 0.0 0.0 4.860403243099165 0.0 0.0 0.0 24.582432123328676" Properties=species:S:1:pos:R:3:tags:I:1:masses:R:1:momenta:R:3:forces:R:3 KEmax=25.851991011651638 iter=119999 volume=670.5618179858607 ns_energy=-13.621460814372426 last_walked_iter_clone=119820 energy=-13.621460814379235 stress="0.009466604083903237 2.148342076807392e-09 -4.319673603661464e-09 2.148342076807392e-09 0.009466607526162485 3.430682910538719e-09 -4.319673603661464e-09 3.430682910538719e-09 0.004854865060240324" pbc="T T T"
H        1.40307756       0.81006721      10.00000000        3       1.00000000       0.00000000       0.00000000       0.00000000       0.00000000       0.00000000       0.00000000
H        4.20923268       0.81006721      10.00000000        3       1.00000000       0.00000000       0.00000000       0.00000000       0.00000000       0.00000000       0.00000000
H        0.00000000       3.24026883      10.00000000        3       1.00000000       0.00000000       0.00000000       0.00000000       0.00000000       0.00000000       0.00000000
H        2.80615512       3.24026883      10.00000000        3       1.00000000       0.00000000       0.00000000       0.00000000       0.00000000       0.00000000       0.00000000
H        0.00000000       1.62013441      12.29121606        2       1.00000000       0.00000000       0.00000000       0.00000000       0.00000000       0.00000000       0.00000000
H        2.80615512       1.62013441      12.29121606        2       1.00000000       0.00000000       0.00000000       0.00000000       0.00000000       0.00000000       0.00000000
H        1.40307756       4.05033604      12.29121606        2       1.00000000       0.00000000       0.00000000       0.00000000       0.00000000       0.00000000       0.00000000
H        4.20923268       4.05033604      12.29121606        2       1.00000000       0.00000000       0.00000000       0.00000000       0.00000000       0.00000000       0.00000000
H        0.00000000       0.00000000      14.58243212        1       1.00000000       0.00000000       0.00000000       0.00000000       0.00000000       0.00000000       0.00000000
H        2.80615512       0.00000000      14.58243212        1       1.00000000       0.00000000       0.00000000       0.00000000       0.00000000       0.00000000       0.00000000
H        1.40307756       2.43020162      14.58243212        1       1.00000000       0.00000000       0.00000000       0.00000000       0.00000000       0.00000000       0.00000000
H        4.20923268       2.43020162      14.58243212        1       1.00000000       0.00000000       0.00000000       0.00000000       0.00000000       0.00000000       0.00000000
H        2.80615513       1.62013515       7.77136699        0       1.00000000       0.00000077      -0.00000037       0.00000112      -0.00000148       0.00000171       0.00000080
H        0.00000043       1.62013483       7.77136715        0       1.00000000      -0.00000108       0.00000000      -0.00000065      -0.00000129      -0.00000040       0.00000077
H        4.20923304       4.05033525      16.81106474        0       1.00000000      -0.00000107      -0.00000017       0.00000064      -0.00000024      -0.00000116       0.00000232
H        4.20923234       4.05033700       7.77136730        0       1.00000000       0.00000065       0.00000018       0.00000083       0.00000024      -0.00000042       0.00000093
H        1.40307741       4.05033568       7.77136654        0       1.00000000      -0.00000043       0.00000021       0.00000094       0.00000243       0.00000042       0.00000135
H        0.00000052       1.62013428      16.81106615        0       1.00000000      -0.00000003       0.00000037      -0.00000029       0.00000047      -0.00000031      -0.00000090
H        2.80615520       1.62013420      16.81106429        0       1.00000000      -0.00000009       0.00000042      -0.00000001       0.00000004       0.00000006       0.00000085
H        1.40307778       4.05033546      16.81106503        0       1.00000000      -0.00000021       0.00000050      -0.00000188       0.00000092       0.00000168       0.00000074
20
Lattice="5.612310241546866 0.0 0.0 0.0 4.860403243099165 0.0 0.0 0.0 24.582432123328676" Properties=species:S:1:pos:R:3:tags:I:1:masses:R:1:momenta:R:3:forces:R:3 KEmax=25.851991011651638 iter=119999 volume=670.5618179858607 ns_energy=-13.621460814372574 last_walked_iter_clone=118923 energy=-13.621460814379235 stress="0.009466604083903237 2.148342076807392e-09 -4.319673603661464e-09 2.148342076807392e-09 0.009466607526162485 3.430682910538719e-09 -4.319673603661464e-09 3.430682910538719e-09 0.004854865060240324" pbc="T T T"
H        1.40307756       0.81006721      10.00000000        3       1.00000000       0.00000000       0.00000000       0.00000000       0.00000000       0.00000000       0.00000000