20
Lattice="5.612310241546866 0.0 0.0 0.0 4.860403243099165 0.0 0.0 0.0 24.582432123328676" Properties=species:S:1:pos:R:3:tags:I:1:masses:R:1:momenta:R:3 KEmax=25.851991011651638 iter=99 volume=670.5618179858607 ns_energy=470.54386771340756 ns_P=0.0 config_n_global=99 ns_KE=12.424016301177867 pbc="T T T"
H        1.40307756       0.81006721      10.00000000        3       1.00000000       0.00000000       0.00000000       0.00000000
H        4.20923268       0.81006721      10.00000000        3       1.00000000       0.00000000       0.00000000       0.00000000
H        0.00000000       3.24026883      10.00000000        3       1.00000000       0.00000000       0.00000000       0.00000000
H        2.80615512       3.24026883      10.00000000        3       1.00000000       0.00000000       0.00000000       0.00000000
H        0.00000000       1.62013441      12.29121606        2       1.00000000       0.00000000       0.00000000       0.00000000
H        2.80615512       1.62013441      12.29121606        2       1.00000000       0.00000000       0.00000000       0.00000000
H        1.40307756       4.05033604      12.29121606        2       1.00000000       0.00000000       0.00000000       0.00000000
H        4.20923268       4.05033604      12.29121606        2       1.00000000       0.00000000       0.00000000       0.00000000
H        0.00000000       0.00000000      14.58243212        1       1.00000000       0.00000000       0.00000000       0.00000000
H        2.80615512       0.00000000      14.58243212        1       1.00000000       0.00000000       0.00000000       0.00000000
H        1.40307756       2.43020162      14.58243212        1       1.00000000       0.00000000       0.00000000       0.00000000
H        4.20923268       2.43020162      14.58243212        1       1.00000000       0.00000000       0.00000000       0.00000000
H        3.64398729       2.84340142      17.74069273        0       1.00000000      -1.47359420      -0.55106683       2.23588871
H        5.48479022       1.36982558       2.96564879        0       1.00000000      -0.73924350       0.42215538      -1.12955752
H        1.71051858       3.95735088      20.47779018        0       1.00000000       1.23944045       0.42639587      -0.59677202
H        4.21102446       1.14645606       2.46439498        0       1.00000000       1.29972880       0.79426993      -0.16674926
H        2.65265074       4.39309827      18.72384929        0       1.00000000       0.06602934       0.70610403      -0.93817233
H        4.27944816       3.41381325      20.73251209        0       1.00000000      -0.44053057      -1.51974854      -0.57474261
H        3.92769439       4.47522647      22.44412370        0       1.00000000       1.43904458       0.84854148      -0.50136287
H        1.46246793       1.89518504      19.96128493        0       1.00000000       1.53214654       1.03705724      -0.51828192
20
Lattice="5.612310241546866 0.0 0.0 0.0 4.860403243099165 0.0 0.0 0.0 24.582432123328676" Properties=species:S:1:pos:R:3:tags:I:1:masses:R:1:momenta:R:3 KEmax=25.851991011651638 iter=199 volume=670.5618179858607 ns_energy=46.25212656534873 ns_P=0.0 config_n_global=199 ns_KE=11.91821204807103 pbc="T T T"
H        1.40307756       0.81006721      10.00000000        3       1.00000000       0.00000000       0.00000000       0.00000000
H        4.20923268       0.81006721      10.00000000        3       1.00000000       0.00000000       0.00000000       0.00000000
H        0.00000000       3.24026883      10.00000000        3       1.00000000       0.00000000       0.00000000       0.00000000
H        2.80615512       3.24026883      10.00000000        3       1.00000000       0.00000000       0.00000000       0.00000000
H        0.00000000       1.62013441      12.29121606        2       1.00000000       0.00000000       0.00000000       0.00000000
H        2.80615512       1.62013441      12.29121606        2       1.00000000       0.00000000       0.00000000       0.00000000
H        1.40307756       4.05033604      12.29121606        2       1.00000000       0.00000000       0.00000000       0.00000000
H        4.20923268       4.05033604      12.29121606        2       1.00000000       0.00000000       0.00000000       0.00000000
H        0.00000000       0.00000000      14.58243212        1       1.00000000       0.00000000       0.00000000       0.00000000
H        2.80615512       0.00000000      14.58243212        1       1.00000000       0.00000000       0.00000000       0.00000000
H        1.40307756       2.43020162      14.58243212        1       1.00000000       0.00000000       0.00000000       0.00000000
H        4.20923268       2.43020162      14.58243212        1       1.00000000       0.00000000       0.00000000       0.00000000
H        4.60577240       4.84948233       0.40799891        0       1.00000000       0.26118045       0.80850619       0.51436089
H        4.29401951       2.28300670       4.08448681        0       1.00000000      -0.25874950      -0.14287548      -0.20174558
H        5.45558896       1.91593140      21.34868244        0       1.00000000       0.41875671       0.42356813      -1.66350883
H        4.17831612       1.60268272       7.43242092        0       1.00000000      -1.02864765       1.53843364      -0.59587224
H        4.03635046       3.24878441      19.87114801        0       1.00000000      -0.96716692      -0.98365333      -0.97354957
H        3.03991649       1.33962749       1.22445148        0       1.00000000       0.01650200      -0.72168033      -0.54719197
H        2.85819587       4.45336706       6.62951290        0       1.00000000       2.34422288       1.24812056       0.35802099
H        4.19197145       0.80569509       4.88276008        0       1.00000000       2.15839065       0.10817567       0.54487760
20
Lattice="5.612310241546866 0.0 0.0 0.0 4.860403243099165 0.0 0.0 0.0 24.582432123328676" Properties=species:S:1:pos:R:3:tags:I:1:masses:R:1:momenta:R:3 KEmax=25.851991011651638 iter=299 volume=670.5618179858607 ns_energy=18.928868624920707 last_walked_iter_clone=159 ns_P=0.0 config_n_global=299 ns_KE=24.70586115809181 pbc="T T T"
H        1.40307756       0.81006721      10.00000000        3       1.00000000       0.00000000       0.00000000       0.00000000
H        4.20923268       0.81006721      10.00000000        3       1.00000000       0.00000000       0.00000000       0.00000000
H        0.00000000       3.24026883      10.00000000        3       1.00000000       0.00000000       0.00000000       0.00000000
H        2.80615512       3.24026883      10.00000000        3       1.00000000       0.00000000       0.00000000       0.00000000
H        0.00000000       1.62013441      12.29121606        2       1.00000000       0.00000000       0.00000000       0.00000000
H        2.80615512       1.62013441      12.29121606        2       1.00000000       0.00000000       0.00000000       0.00000000
H        1.40307756       4.05033604      12.29121606        2       1.00000000       0.00000000       0.00000000       0.00000000
H        4.20923268       4.05033604      12.29121606        2       1.00000000       0.00000000       0.00000000       0.00000000
H        0.00000000       0.00000000      14.58243212        1       1.00000000       0.00000000       0.00000000       0.00000000
H        2.80615512       0.00000000      14.58243212        1       1.00000000       0.00000000       0.00000000       0.00000000
H        1.40307756       2.43020162      14.58243212        1       1.00000000       0.00000000       0.00000000       0.00000000
H        4.20923268       2.43020162      14.58243212        1       1.00000000       0.00000000       0.00000000       0.00000000
H        5.12238028       3.61937422      18.36202237        0       1.00000000       0.68343045      -2.50298851      -3.24566711
H        3.66284399       0.53058268       6.66739036        0       1.00000000       0.95897398       0.16038988      -0.35635002
H        2.23750290       0.00950706      17.95108244        0       1.00000000       1.02404518       0.12547417       0.79709838
H        3.27201102       3.20957554      17.19562117        0       1.00000000      -1.16831465      -1.56791958      -1.93823702
H        3.29419198       1.61457505       0.89631307        0       1.00000000      -0.54742616      -3.38953641       1.12335814
H        3.50821233       2.85326104      22.62769565        0       1.00000000       2.13463367      -0.70190877      -0.10895064
H        3.92120010       0.73029446      21.60419507        0       1.00000000      -0.21534485      -0.65763989      -1.29898054
H        1.04193699       4.40130291       4.39275258        0       1.00000000       0.99121166      -0.04050548       0.72869551
20
Lattice="5.612310241546866 0.0 0.0 0.0 4.860403243099165 0.0 0.0 0.0 24.582432123328676" Properties=species:S:1:pos:R:3:tags:I:1:masses:R:1:momenta:R:3 KEmax=25.851991011651638 iter=399 volume=670.5618179858607 ns_energy=16.004674805292357 last_walked_iter_clone=360 ns_P=0.0 config_n_global=399 ns_KE=23.565435062672847 pbc="T T T"
H        1.40307756       0.81006721      10.00000000        3       1.00000000       0.00000000       0.00000000       0.00000000
H        4.20923268       0.81006721      10.00000000        3       1.00000000       0.00000000       0.00000000       0.00000000
H        0.00000000       3.24026883      10.00000000        3       1.00000000       0.00000000       0.00000000       0.00000000
H        2.80615512       3.24026883      10.00000000        3       1.00000000       0.00000000       0.00000000       0.00000000
H        0.00000000       1.62013441      12.29121606        2       1.00000000       0.00000000       0.00000000       0.00000000
H        2.80615512       1.62013441      12.29121606        2       1.00000000       0.00000000       0.00000000       0.00000000
H        1.40307756       4.05033604      12.29121606        2       1.00000000       0.00000000       0.00000000       0.00000000
H        4.20923268       4.05033604      12.29121606        2       1.00000000       0.00000000       0.00000000       0.00000000
H        0.00000000       0.00000000      14.58243212        1       1.00000000       0.00000000       0.00000000       0.00000000
H        2.80615512       0.00000000      14.58243212        1       1.00000000       0.00000000       0.00000000       0.00000000
H        1.40307756       2.43020162      14.58243212        1       1.00000000       0.00000000       0.00000000       0.00000000
H        4.20923268       2.43020162      14.58243212        1       1.00000000       0.00000000       0.00000000       0.00000000
H        1.28499534       1.77770307       2.24906759        0       1.00000000       0.70116066      -0.52978248      -2.57482811
H        1.11543552       4.02940468      17.74413728        0       1.00000000      -1.45028087       0.11307197       1.56059018
H        3.57605709       1.75764657      20.19745059        0       1.00000000       0.70916424      -0.58537198      -0.64175390
H        1.29078315       1.04552615      23.56865968        0       1.00000000       2.30965177      -1.62928716       2.32587222
H        4.42773462       2.75013356      16.71502083        0       1.00000000       1.52665213       0.35231026       0.26902101
H        1.33147001       1.53027484      18.00880415        0       1.00000000       1.02653632       2.28541388       0.77290719
H        0.04057548       2.40888353       5.07945625        0       1.00000000       2.51155505      -1.13849801      -1.11575614
H        0.81077146       4.60543311       4.39606717        0       1.00000000      -0.72511507       0.44032237       1.24539420
20
Lattice="5.612310241546866 0.0 0.0 0.0 4.860403243099165 0.0 0.0 0.0 24.582432123328676" Properties=species:S:1:pos:R:3:tags:I:1:masses:R:1:momenta:R:3 KEmax=25.851991011651638 iter=499 volume=670.5618179858607 ns_energy=14.40907020858685 last_walked_iter_clone=431 ns_P=0.0 config_n_global=499 ns_KE=22.207881196383187 pbc="T T T"
H        1.40307756       0.81006721      10.00000000        3       1.00000000       0.00000000       0.00000000       0.00000000
H        4.20923268       0.81006721      10.00000000        3       1.00000000       0.00000000       0.00000000       0.00000000
H        0.00000000       3.24026883      10.00000000        3       1.00000000       0.00000000       0.00000000       0.00000000
H        2.80615512       3.24026883      10.00000000        3       1.00000000       0.00000000       0.00000000       0.00000000
H        0.00000000       1.62013441      12.29121606        2       1.00000000       0.00000000       0.00000000       0.00000000
H        2.80615512       1.62013441      12.29121606        2       1.00000000       0.00000000       0.00000000       0.00000000
H        1.40307756       4.05033604      12.29121606        2       1.00000000       0.00000000       0.00000000       0.00000000
H        4.20923268       4.05033604      12.29121606        2       1.00000000       0.00000000       0.00000000       0.00000000
H        0.00000000       0.00000000      14.58243212        1       1.00000000       0.00000000       0.00000000       0.00000000
H        2.80615512       0.00000000      14.58243212        1       1.00000000       0.00000000       0.00000000       0.00000000
H        1.40307756       2.43020162      14.58243212        1       1.00000000       0.00000000       0.00000000       0.00000000
H        4.20923268       2.43020162      14.58243212        1       1.00000000       0.00000000       0.00000000       0.00000000
H        3.85113561       2.99877448       6.91456676        0       1.00000000      -1.32756599      -1.86760492      -0.14422012
H        4.00668235       2.43320947      21.08847856        0       1.00000000       1.21347427       0.38730581      -0.84977013
H        2.55057028       3.60579708      19.87469880        0       1.00000000       1.35368233       0.34310040       1.98778100
H        0.92763860       3.03475793       0.99272205        0       1.00000000       2.95335301       0.31860716       1.48356192
H        0.15300757       0.80598658      18.21696863        0       1.00000000       1.40259009       1.69364345       0.32436617
H        5.23698845       2.86335754      17.39872790        0       1.00000000       2.77737528       0.00366293      -1.55862595
H        0.06097255       3.89758476      21.83698262        0       1.00000000      -1.69878619       1.01275588      -0.29643408
H        2.80226185       1.22070287      18.02248543        0       1.00000000      -0.85805704      -0.17117162       0.15720978
20
Lattice="5.612310241546866 0.0 0.0 0.0 4.860403243099165 0.0 0.0 0.0 24.582432123328676" Properties=species:S:1:pos:R:3:tags:I:1:masses:R:1:momenta:R:3 KEmax=25.851991011651638 iter=599 volume=670.5618179858607 ns_energy=13.007971966787263 last_walked_iter_clone=470 ns_P=0.0 config_n_global=599 ns_KE=21.620827889392352 pbc="T T T"
H        1.40307756       0.81006721      10.00000000        3       1.00000000       0.00000000       0.00000000       0.00000000
H        4.20923268       0.81006721      10.00000000        3       1.00000000       0.00000000       0.00000000       0.00000000
H        0.00000000       3.24026883      10.00000000        3       1.00000000       0.00000000       0.00000000       0.00000000
H        2.80615512       3.24026883      10.00000000        3       1.00000000       0.00000000       0.00000000       0.00000000
H        0.00000000       1.62013441      12.29121606        2       1.00000000       0.00000000       0.00000000       0.00000000
H        2.80615512       1.62013441      12.29121606        2       1.00000000       0.00000000       0.00000000       0.00000000
H        1.40307756       4.05033604      12.29121606        2       1.00000000       0.00000000       0.00000000       0.00000000
H        4.20923268       4.05033604      12.29121606        2       1.00000000       0.00000000       0.00000000       0.00000000
H        0.00000000       0.00000000      14.58243212        1       1.00000000       0.00000000       0.00000000       0.00000000
H        2.80615512       0.00000000      14.58243212        1       1.00000000       0.00000000       0.00000000       0.00000000
H        1.40307756       2.43020162      14.58243212        1       1.00000000       0.00000000       0.00000000       0.00000000
H        4.20923268       2.43020162      14.58243212        1       1.00000000       0.00000000       0.00000000       0.00000000
H        1.45799289       2.27049655       0.88708347        0       1.00000000      -0.42343253       0.15516260       1.02487832
H        3.03037052       2.62095593       6.02519079        0       1.00000000       0.96694641       0.18535727       0.43285286
H        0.90332483       2.81063979      23.06789405        0       1.00000000       1.37466293      -2.25601012      -2.88839517
H        1.43019135       0.43133391       4.56901263        0       1.00000000       0.34815080      -2.27649483       0.27427888
H        1.07494901       4.52664635      21.00994015        0       1.00000000       1.72511694      -0.44644091      -1.93893480
H        5.46929647       2.00099015       7.31949773        0       1.00000000       1.61457120      -2.24012158       0.40770525
H        2.82611534       2.99340759      21.27323819        0       1.00000000      -1.82833775       0.20365761       0.39336203
H        3.50150467       1.95304972      23.36705290        0       1.00000000       0.35393260      -1.26634302      -0.36918265
20
Lattice="5.612310241546866 0.0 0.0 0.0 4.860403243099165 0.0 0.0 0.0 24.582432123328676" Properties=species:S:1:pos:R:3:tags:I:1:masses:R:1:momenta:R:3 KEmax=25.851991011651638 iter=699 volume=670.5618179858607 ns_energy=11.825515519043622 last_walked_iter_clone=628 ns_P=0.0 config_n_global=699 ns_KE=20.471146890683208 pbc="T T T"
H        1.40307756       0.81006721      10.00000000        3       1.00000000       0.00000000       0.00000000       0.00000000
H        4.20923268       0.81006721      10.00000000        3       1.00000000       0.00000000       0.00000000       0.00000000
H        0.00000000       3.24026883      10.00000000        3       1.00000000       0.00000000       0.00000000       0.00000000
H        2.80615512       3.24026883      10.00000000        3       1.00000000       0.00000000       0.00000000       0.00000000
H        0.00000000       1.62013441      12.29121606        2       1.00000000       0.00000000       0.00000000       0.00000000
H        2.80615512       1.62013441      12.29121606        2       1.00000000       0.00000000       0.00000000       0.00000000
H        1.40307756       4.05033604      12.29121606        2       1.00000000       0.00000000       0.00000000       0.00000000
H        4.20923268       4.05033604      12.29121606        2       1.00000000       0.00000000       0.00000000       0.00000000
H        0.00000000       0.00000000      14.58243212        1       1.00000000       0.00000000       0.00000000       0.00000000
H        2.80615512       0.00000000      14.58243212        1       1.00000000       0.00000000       0.00000000       0.00000000
H        1.40307756       2.43020162      14.58243212        1       1.00000000       0.00000000       0.00000000       0.00000000
H        4.20923268       2.43020162      14.58243212        1       1.00000000       0.00000000       0.00000000       0.00000000
H        1.44220040       4.71395429       6.49669683        0       1.00000000      -0.77810826       0.44388305      -2.86968913
H        0.78812791       3.56437141      23.25353301        0       1.00000000      -0.25709044      -1.18803048       0.68295153
H        5.07676914       2.19070068       0.26987950        0       1.00000000      -0.59099846      -0.75564242       1.10043919
H        0.05179607       0.49883460       4.40386831        0       1.00000000      -1.44544291       0.10060926       1.93038317
H        5.00167365       2.12167728      19.50873232        0       1.00000000      -2.07908218       0.53119085       2.32939583
H        4.64944447       0.43949726       2.12317559        0       1.00000000      -0.72150722       0.41028529      -1.54871136
H        3.18477723       0.36245073      21.78589907        0       1.00000000      -2.14929238      -1.34768084      -0.25061029
H        4.23764417       2.39118117       7.94770910        0       1.00000000      -1.26078206      -0.00925668      -0.89291775
20
Lattice="5.612310241546866 0.0 0.0 0.0 4.860403243099165 0.0 0.0 0.0 24.582432123328676" Properties=species:S:1:pos:R:3:tags:I:1:masses:R:1:momenta:R:3 KEmax=25.851991011651638 iter=799 volume=670.5618179858607 ns_energy=10.613510992281062 last_walked_iter_clone=668 ns_P=0.0 config_n_global=799 ns_KE=16.591673574633845 pbc="T T T"
H        1.40307756       0.81006721      10.00000000        3       1.00000000       0.00000000       0.00000000       0.00000000
H        4.20923268       0.81006721      10.00000000        3       1.00000000       0.00000000       0.00000000       0.00000000
H        0.00000000       3.24026883      10.00000000        3       1.00000000       0.00000000       0.00000000       0.00000000
H        2.80615512       3.24026883      10.00000000        3       1.00000000       0.00000000       0.00000000       0.00000000
H        0.00000000       1.62013441      12.29121606        2       1.00000000       0.00000000       0.00000000       0.00000000
H        2.80615512       1.62013441      12.29121606        2       1.00000000       0.00000000       0.00000000       0.00000000
H        1.40307756       4.05033604      12.29121606        2       1.00000000       0.00000000       0.00000000       0.00000000
H        4.20923268       4.05033604      12.29121606        2       1.00000000       0.00000000       0.00000000       0.00000000
H        0.00000000       0.00000000      14.58243212        1       1.00000000       0.00000000       0.00000000       0.00000000
H        2.80615512       0.00000000      14.58243212        1       1.00000000       0.00000000       0.00000000       0.00000000
H        1.40307756       2.43020162      14.58243212        1       1.00000000       0.00000000       0.00000000       0.00000000
H        4.20923268       2.43020162      14.58243212        1       1.00000000       0.00000000       0.00000000       0.00000000
H        4.70620336       3.46145677      21.92354105        0       1.00000000      -0.50138115       0.01709515       0.25396784
H        4.40036652       3.80256209      17.79673398        0       1.00000000      -0.91707789      -2.03811266      -3.43558337
H        2.71068326       1.36077293      19.89594640        0       1.00000000      -0.49498445      -0.49194573      -0.91440196
H        0.78696556       4.05800028      19.39107020        0       1.00000000      -0.47677454       0.67424141       1.79919191
H        1.62843472       2.25372269      18.23466217        0       1.00000000      -0.99445366      -1.26861205      -1.35497044
H        4.45549767       0.89128736       7.22897508        0       1.00000000       1.26426917       0.49187438      -0.71341064
H        4.61651448       3.77316569       8.03514884        0       1.00000000      -1.27342624      -1.10104201       0.12243553
H        1.65114177       4.81915296       6.21528920        0       1.00000000      -1.09276166       0.00772776      -0.01511906
20
Lattice="5.612310241546866 0.0 0.0 0.0 4.860403243099165 0.0 0.0 0.0 24.582432123328676" Properties=species:S:1:pos:R:3:tags:I:1:masses:R:1:momenta:R:3 KEmax=25.851991011651638 iter=899 volume=670.5618179858607 ns_energy=9.520808522700573 last_walked_iter_clone=837 ns_P=0.0 config_n_global=899 ns_KE=18.69155073023689 pbc="T T T"
H        1.40307756       0.81006721      10.00000000        3       1.00000000       0.00000000       0.00000000       0.00000000
H        4.20923268       0.81006721      10.00000000        3       1.00000000       0.00000000       0.00000000       0.00000000
H        0.00000000       3.24026883      10.00000000        3       1.00000000       0.00000000       0.00000000       0.00000000
H        2.80615512       3.24026883      10.00000000        3       1.00000000       0.00000000       0.00000000       0.00000000
H        0.00000000       1.62013441      12.29121606        2       1.00000000       0.00000000       0.00000000       0.00000000
H        2.80615512       1.62013441      12.29121606        2       1.00000000       0.00000000       0.00000000       0.00000000
H        1.40307756       4.05033604      12.29121606        2       1.00000000       0.00000000       0.00000000       0.00000000
H        4.20923268       4.05033604      12.29121606        2       1.00000000       0.00000000       0.00000000       0.00000000
H        0.00000000       0.00000000      14.58243212        1       1.00000000       0.00000000       0.00000000       0.00000000
H        2.80615512       0.00000000      14.58243212        1       1.00000000       0.00000000       0.00000000       0.00000000
H        1.40307756       2.43020162      14.58243212        1       1.00000000       0.00000000       0.00000000       0.00000000
H        4.20923268       2.43020162      14.58243212        1       1.00000000       0.00000000       0.00000000       0.00000000
H       -0.19128324       3.03693455       0.88405066        0       1.00000000      -1.83607480       0.49703574      -1.00928067
H        1.51098005       2.59830843       2.77806003        0       1.00000000      -0.18691042      -0.64407075       0.99740380
H        0.13722740       4.65563427      18.30531358        0       1.00000000       0.95158715       1.03915345      -0.70798494
H        4.72475994       2.14197734      19.95259133        0       1.00000000      -0.18237786       2.19042249      -0.30986616
H        2.73759948       4.28985351      23.02026485        0       1.00000000       0.90571451       0.34890104      -0.20150174
H        1.10913590       1.60313334      23.09040432        0       1.00000000      -0.68314361       2.05288208       1.44751560
H        4.86719144       1.99148765       7.21519353        0       1.00000000      -2.57911068      -2.42431959      -1.29645020
H        2.40937170       3.64770844      16.89474065        0       1.00000000       1.35739947       0.23903972       0.13882645
20
Lattice="5.612310241546866 0.0 0.0 0.0 4.860403243099165 0.0 0.0 0.0 24.582432123328676" Properties=species:S:1:pos:R:3:tags:I:1:masses:R:1:momenta:R:3 KEmax=25.851991011651638 iter=999 volume=670.5618179858607 ns_energy=8.399310777301212 last_walked_iter_clone=808 ns_P=0.0 config_n_global=999 ns_KE=17.030359237058885 pbc="T T T"
H        1.40307756       0.81006721      10.00000000        3       1.00000000       0.00000000       0.00000000       0.00000000
H        4.20923268       0.81006721      10.00000000        3       1.00000000       0.00000000       0.00000000       0.00000000
H        0.00000000       3.24026883      10.00000000        3       1.00000000       0.00000000       0.00000000       0.00000000
H        2.80615512       3.24026883      10.00000000        3       1.00000000       0.00000000       0.00000000       0.00000000
H        0.00000000       1.62013441      12.29121606        2       1.00000000       0.00000000       0.00000000       0.00000000
H        2.80615512       1.62013441      12.29121606        2       1.00000000       0.00000000       0.00000000       0.00000000
H        1.40307756       4.05033604      12.29121606        2       1.00000000       0.00000000       0.00000000       0.00000000
H        4.20923268       4.05033604      12.29121606        2       1.00000000       0.00000000       0.00000000       0.00000000
H        0.00000000       0.00000000      14.58243212        1       1.00000000       0.00000000       0.00000000       0.00000000
H        2.80615512       0.00000000      14.58243212        1       1.00000000       0.00000000       0.00000000       0.00000000
H        1.40307756       2.43020162      14.58243212        1       1.00000000       0.00000000       0.00000000       0.00000000
H        4.20923268       2.43020162      14.58243212        1       1.00000000       0.00000000       0.00000000       0.00000000
H        2.11662269       3.13576709      16.82914643        0       1.00000000      -2.26244587       2.17164639      -0.07369979
H        4.54427612       3.59838786      17.20932767        0       1.00000000      -0.14899507       1.15364074       0.32957435
H        2.27357689       0.82987406       0.44874523        0       1.00000000      -0.36130650      -1.25341042      -0.58780856
H        3.79204739       2.30538607      23.97032087        0       1.00000000      -1.95012413       0.47664235       1.57297815
H        4.32051838       3.52366004       5.86541454        0       1.00000000       2.89608363      -0.09097544      -1.63675793
H        2.09644240       2.15259989       6.82131375        0       1.00000000       1.15455624       0.03976933       0.03662775
H        3.96996721       0.05387447      19.12488312        0       1.00000000      -0.92516257       0.08411372      -0.88794554
H        0.14449389       1.50437333       7.93771190        0       1.00000000      -0.11663712       0.18348368       0.31328106
20
Lattice="5.612310241546866 0.0 0.0 0.0 4.860403243099165 0.0 0.0 0.0 24.582432123328676" Properties=species:S:1:pos:R:3:tags:I:1:masses:R:1:momenta:R:3 KEmax=25.851991011651638 iter=1099 volume=670.5618179858607 ns_energy=7.364567372597837 last_walked_iter_clone=1057 ns_P=0.0 config_n_global=1099 ns_KE=16.168257382584564 pbc="T T T"
H        1.40307756       0.81006721      10.00000000        3       1.00000000       0.00000000       0.00000000       0.00000000