20
Lattice="5.612310241546866 0.0 0.0 0.0 4.860403243099165 0.0 0.0 0.0 24.582432123328676" Properties=species:S:1:pos:R:3:tags:I:1:masses:R:1:momenta:R:3:forces:R:3 KEmax=25.851991011651638 iter=239999 volume=670.5618179858607 ns_energy=-13.621460814371758 last_walked_iter_clone=239307 energy=-13.62145586320573 stress="0.02572914435486268 -4.3262940292784825e-09 8.7701882499301e-09 -4.3262940292784825e-09 0.02572922645890103 7.969854393900009e-09 8.7701882499301e-09 7.969854393900009e-09 0.013195114738148852" pbc="T T F"
H        1.40307756       0.81006721      10.00000000        3       1.00000000       0.00000000       0.00000000       0.00000000       0.00000000       0.00000000       0.00000000
H        4.20923268       0.81006721      10.00000000        3       1.00000000       0.00000000       0.00000000       0.00000000       0.00000000       0.00000000       0.00000000
H        0.00000000       3.24026883      10.00000000        3       1.00000000       0.00000000       0.00000000       0.00000000       0.00000000       0.00000000       0.00000000
H        2.80615512       3.24026883      10.00000000        3       1.00000000       0.00000000       0.00000000       0.00000000       0.00000000       0.00000000       0.00000000
H        0.00000000       1.62013441      12.29121606        2       1.00000000       0.00000000       0.00000000       0.00000000       0.00000000       0.00000000       0.00000000
H        2.80615512       1.62013441      12.29121606        2       1.00000000       0.00000000       0.00000000       0.00000000       0.00000000       0.00000000       0.00000000
H        1.40307756       4.05033604      12.29121606        2       1.00000000       0.00000000       0.00000000       0.00000000       0.00000000       0.00000000       0.00000000
H        4.20923268       4.05033604      12.29121606        2       1.00000000       0.00000000       0.00000000       0.00000000       0.00000000       0.00000000       0.00000000
H        0.00000000       0.00000000      14.58243212        1       1.00000000       0.00000000       0.00000000       0.00000000       0.00000000       0.00000000       0.00000000
H        2.80615512       0.00000000      14.58243212        1       1.00000000       0.00000000       0.00000000       0.00000000       0.00000000       0.00000000       0.00000000
H        1.40307756       2.43020162      14.58243212        1       1.00000000       0.00000000       0.00000000       0.00000000       0.00000000       0.00000000       0.00000000
H        4.20923268       2.43020162      14.58243212        1       1.00000000       0.00000000       0.00000000       0.00000000       0.00000000       0.00000000       0.00000000
H       -0.00000017       1.62013434      16.81106444        0       1.00000000      -0.00000077       0.00000034       0.00000028       0.00079309      -0.00105312      -0.00000228
H        1.40307838       4.05033617       7.77136761        0       1.00000000      -0.00000083      -0.00000069      -0.00000023      -0.00156846       0.00224142      -0.00000237
H        2.80615551       1.62013442      16.81106508        0       1.00000000       0.00000034      -0.00000005      -0.00000008      -0.00079325      -0.00100955      -0.00000074
H        0.00000129       1.62013485       7.77136710        0       1.00000000       0.00000118       0.00000130      -0.00000062      -0.00337205      -0.00223249      -0.00000358
H        1.40307662       4.05033643      16.81106530        0       1.00000000       0.00000067      -0.00000098       0.00000011      -0.00073130       0.00102176       0.00000103
H        4.20923349       4.05033639       7.77136667        0       1.00000000       0.00000078       0.00000024       0.00000043       0.00157187       0.00223789       0.00000260
H        4.20923172       4.05033622      16.81106570        0       1.00000000      -0.00000048      -0.00000065      -0.00000087       0.00073005       0.00104015      -0.00000400
H        2.80615629       1.62013510       7.77136766        0       1.00000000       0.00000032       0.00000199      -0.00000059       0.00336820      -0.00224670       0.00000316
20
Lattice="5.612310241546866 0.0 0.0 0.0 4.860403243099165 0.0 0.0 0.0 24.582432123328676" Properties=species:S:1:pos:R:3:tags:I:1:masses:R:1:momenta:R:3:forces:R:3 KEmax=25.851991011651638 iter=239999 volume=670.5618179858607 ns_energy=-13.62146081437177 last_walked_iter_clone=239547 energy=-13.62145586320573 stress="0.02572914435486268 -4.3262940292784825e-09 8.7701882499301e-09 -4.3262940292784825e-09 0.02572922645890103 7.969854393900009e-09 8.7701882499301e-09 7.969854393900009e-09 0.013195114738148852" pbc="T T F"
H        1.40307756       0.81006721      10.00000000        3       1.00000000       0.00000000       0.00000000       0.00000000       0.00000000       0.00000000       0.00000000
H        4.20923268       0.81006721      10.00000000        3       1.00000000       0.00000000       0.00000000       0.00000000       0.00000000       0.00000000       0.00000000
H        0.00000000       3.24026883      10.00000000        3       1.00000000       0.00000000       0.00000000       0.00000000       0.00000000       0.00000000       0.00000000
H        2.80615512       3.24026883      10.00000000        3       1.00000000       0.00000000       0.00000000       0.00000000       0.00000000       0.00000000       0.00000000
H        0.00000000       1.62013441      12.29121606        2       1.00000000       0.00000000       0.00000000       0.00000000       0.00000000       0.00000000       0.00000000
H        2.80615512       1.62013441      12.29121606        2       1.00000000       0.00000000       0.00000000       0.00000000       0.00000000       0.00000000       0.00000000
H        1.40307756       4.05033604      12.29121606        2       1.00000000       0.00000000       0.00000000       0.00000000       0.00000000       0.00000000       0.00000000
H        4.20923268       4.05033604      12.29121606        2       1.00000000       0.00000000       0.00000000       0.00000000       0.00000000       0.00000000       0.00000000
H        0.00000000       0.00000000      14.58243212        1       1.00000000       0.00000000       0.00000000       0.00000000       0.00000000       0.00000000       0.00000000
H        2.80615512       0.00000000      14.58243212        1       1.00000000       0.00000000       0.00000000       0.00000000       0.00000000       0.00000000       0.00000000
H        1.40307756       2.43020162      14.58243212        1       1.00000000       0.00000000       0.00000000       0.00000000       0.00000000       0.00000000       0.00000000
H        4.20923268       2.43020162      14.58243212        1       1.00000000       0.00000000       0.00000000       0.00000000       0.00000000       0.00000000       0.00000000
H       -0.00000017       1.62013434      16.81106444        0       1.00000000       0.00000023       0.00000103       0.00000112       0.00079309      -0.00105312      -0.00000228
H        1.40307838       4.05033617       7.77136761        0       1.00000000      -0.00000023       0.00000056       0.00000069      -0.00156846       0.00224142      -0.00000237
H        2.80615551       1.62013442      16.81106508        0       1.00000000      -0.00000046      -0.00000025       0.00000161      -0.00079325      -0.00100955      -0.00000074
H        0.00000129       1.62013485       7.77136710        0       1.00000000      -0.00000025      -0.00000021       0.00000059      -0.00337205      -0.00223249      -0.00000358
H        1.40307662       4.05033643      16.81106530        0       1.00000000       0.00000033      -0.00000199      -0.00000053      -0.00073130       0.00102176       0.00000103
H        4.20923349       4.05033639       7.77136667        0       1.00000000       0.00000013       0.00000077       0.00000109       0.00157187       0.00223789       0.00000260
H        4.20923172       4.05033622      16.81106570        0       1.00000000      -0.00000075      -0.00000039      -0.00000006       0.00073005       0.00104015      -0.00000400
H        2.80615629       1.62013510       7.77136766        0       1.00000000       0.00000003       0.00000047       0.00000001       0.00336820      -0.00224670       0.00000316
20
Lattice="5.612310241546866 0.0 0.0 0.0 4.860403243099165 0.0 0.0 0.0 24.582432123328676" Properties=species:S:1:pos:R:3:tags:I:1:masses:R:1:momenta:R:3:forces:R:3 KEmax=25.851991011651638 iter=239999 volume=670.5618179858607 ns_energy=-13.621460814371867 last_walked_iter_clone=239951 energy=-13.62145586320573 stress="0.02572914435486268 -4.3262940292784825e-09 8.7701882499301e-09 -4.3262940292784825e-09 0.02572922645890103 7.969854393900009e-09 8.7701882499301e-09 7.969854393900009e-09 0.013195114738148852" pbc="T T F"
H        1.40307756       0.81006721      10.00000000        3       1.00000000       0.00000000       0.00000000       0.00000000       0.00000000       0.00000000       0.00000000
H        4.20923268       0.81006721      10.00000000        3       1.00000000       0.00000000       0.00000000       0.00000000       0.00000000       0.00000000       0.00000000
H        0.00000000       3.24026883      10.00000000        3       1.00000000       0.00000000       0.00000000       0.00000000       0.00000000       0.00000000       0.00000000
H        2.80615512       3.24026883      10.00000000        3       1.00000000       0.00000000       0.00000000       0.00000000       0.00000000       0.00000000       0.00000000
H        0.00000000       1.62013441      12.29121606        2       1.00000000       0.00000000       0.00000000       0.00000000       0.00000000       0.00000000       0.00000000
H        2.80615512       1.62013441      12.29121606        2       1.00000000       0.00000000       0.00000000       0.00000000       0.00000000       0.00000000       0.00000000
H        1.40307756       4.05033604      12.29121606        2       1.00000000       0.00000000       0.00000000       0.00000000       0.00000000       0.00000000       0.00000000
H        4.20923268       4.05033604      12.29121606        2       1.00000000       0.00000000       0.00000000       0.00000000       0.00000000       0.00000000       0.00000000
H        0.00000000       0.00000000      14.58243212        1       1.00000000       0.00000000       0.00000000       0.00000000       0.00000000       0.00000000       0.00000000
H        2.80615512       0.00000000      14.58243212        1       1.00000000       0.00000000       0.00000000       0.00000000       0.00000000       0.00000000       0.00000000
H        1.40307756       2.43020162      14.58243212        1       1.00000000       0.00000000       0.00000000       0.00000000       0.00000000       0.00000000       0.00000000
H        4.20923268       2.43020162      14.58243212        1       1.00000000       0.00000000       0.00000000       0.00000000       0.00000000       0.00000000       0.00000000
H        0.00000033       1.62013458      16.81106523        0       1.00000000       0.00000056      -0.00000038      -0.00000084       0.00079309      -0.00105312      -0.00000228
H        1.40307752       4.05033543       7.77136695        0       1.00000000       0.00000186       0.00000023       0.00000009      -0.00156846       0.00224142      -0.00000237
H        2.80615526       1.62013496      16.81106499        0       1.00000000      -0.00000041      -0.00000060       0.00000027      -0.00079325      -0.00100955      -0.00000074
H       -0.00000046       1.62013420       7.77136791        0       1.00000000       0.00000010      -0.00000109       0.00000074      -0.00337205      -0.00223249      -0.00000358
H        1.40307808       4.05033625      16.81106495        0       1.00000000      -0.00000049      -0.00000073      -0.00000052      -0.00073130       0.00102176       0.00000103
H        4.20923229       4.05033523       7.77136792        0       1.00000000      -0.00000039      -0.00000205       0.00000150       0.00157187       0.00223789       0.00000260
H        4.20923288       4.05033576      16.81106467        0       1.00000000       0.00000068       0.00000011      -0.00000025       0.00073005       0.00104015      -0.00000400
H        2.80615566       1.62013415       7.77136698        0       1.00000000       0.00000014       0.00000025       0.00000048       0.00336820      -0.00224670       0.00000316
20
Lattice="5.612310241546866 0.0 0.0 0.0 4.860403243099165 0.0 0.0 0.0 24.582432123328676" Properties=species:S:1:pos:R:3:tags:I:1:masses:R:1:momenta:R:3:forces:R:3 KEmax=25.851991011651638 iter=239999 volume=670.5618179858607 ns_energy=-13.621460814371634 last_walked_iter_clone=239092 energy=-13.62145586320573 stress="0.02572914435486268 -4.3262940292784825e-09 8.7701882499301e-09 -4.3262940292784825e-09 0.02572922645890103 7.969854393900009e-09 8.7701882499301e-09 7.969854393900009e-09 0.013195114738148852" pbc="T T F"
H        1.40307756       0.81006721      10.00000000        3       1.00000000       0.00000000       0.00000000       0.00000000       0.00000000       0.00000000       0.00000000
H        4.20923268       0.81006721      10.00000000        3       1.00000000       0.00000000       0.00000000       0.00000000       0.00000000       0.00000000       0.00000000
H        0.00000000       3.24026883      10.00000000        3       1.00000000       0.00000000       0.00000000       0.00000000       0.00000000       0.00000000       0.00000000
H        2.80615512       3.24026883      10.00000000        3       1.00000000       0.00000000       0.00000000       0.00000000       0.00000000       0.00000000       0.00000000
H        0.00000000       1.62013441      12.29121606        2       1.00000000       0.00000000       0.00000000       0.00000000       0.00000000       0.00000000       0.00000000
H        2.80615512       1.62013441      12.29121606        2       1.00000000       0.00000000       0.00000000       0.00000000       0.00000000       0.00000000       0.00000000
H        1.40307756       4.05033604      12.29121606        2       1.00000000       0.00000000       0.00000000       0.00000000       0.00000000       0.00000000       0.00000000
H        4.20923268       4.05033604      12.29121606        2       1.00000000       0.00000000       0.00000000       0.00000000       0.00000000       0.00000000       0.00000000
H        0.00000000       0.00000000      14.58243212        1       1.00000000       0.00000000       0.00000000       0.00000000       0.00000000       0.00000000       0.00000000
H        2.80615512       0.00000000      14.58243212        1       1.00000000       0.00000000       0.00000000       0.00000000       0.00000000       0.00000000       0.00000000
H        1.40307756       2.43020162      14.58243212        1       1.00000000       0.00000000       0.00000000       0.00000000       0.00000000       0.00000000       0.00000000
H        4.20923268       2.43020162      14.58243212        1       1.00000000       0.00000000       0.00000000       0.00000000       0.00000000       0.00000000       0.00000000
H       -0.00000047       1.62013500      16.81106609        0       1.00000000       0.00000102      -0.00000050       0.00000006       0.00079309      -0.00105312      -0.00000228
H        1.40307702       4.05033629       7.77136674        0       1.00000000      -0.00000001      -0.00000011      -0.00000026      -0.00156846       0.00224142      -0.00000237
H        2.80615477       1.62013518      16.81106530        0       1.00000000       0.00000010      -0.00000184      -0.00000053      -0.00079325      -0.00100955      -0.00000074
H       -0.00000013       1.62013468       7.77136745        0       1.00000000      -0.00000104      -0.00000034      -0.00000197      -0.00337205      -0.00223249      -0.00000358
H        1.40307721       4.05033659      16.81106452        0       1.00000000      -0.00000052       0.00000013      -0.00000073      -0.00073130       0.00102176       0.00000103
H        4.20923246       4.05033586       7.77136653        0       1.00000000      -0.00000097       0.00000005       0.00000130       0.00157187       0.00223789       0.00000260
H        4.20923271       4.05033615      16.81106492        0       1.00000000       0.00000063       0.00000024       0.00000043       0.00073005       0.00104015      -0.00000400
H        2.80615471       1.62013466       7.77136694        0       1.00000000      -0.00000082      -0.00000015       0.00000135       0.00336820      -0.00224670       0.00000316
20
Lattice="5.612310241546866 0.0 0.0 0.0 4.860403243099165 0.0 0.0 0.0 24.582432123328676" Properties=species:S:1:pos:R:3:tags:I:1:masses:R:1:momenta:R:3:forces:R:3 KEmax=25.851991011651638 iter=239999 volume=670.5618179858607 ns_energy=-13.621460814371702 last_walked_iter_clone=238798 energy=-13.62145586320573 stress="0.02572914435486268 -4.3262940292784825e-09 8.7701882499301e-09 -4.3262940292784825e-09 0.02572922645890103 7.969854393900009e-09 8.7701882499301e-09 7.969854393900009e-09 0.013195114738148852" pbc="T T F"
H        1.40307756       0.81006721      10.00000000        3       1.00000000       0.00000000       0.00000000       0.00000000       0.00000000       0.00000000       0.00000000
H        4.20923268       0.81006721      10.00000000        3       1.00000000       0.00000000       0.00000000       0.00000000       0.00000000       0.00000000       0.00000000
H        0.00000000       3.24026883      10.00000000        3       1.00000000       0.00000000       0.00000000       0.00000000       0.00000000       0.00000000       0.00000000
H        2.80615512       3.24026883      10.00000000        3       1.00000000       0.00000000       0.00000000       0.00000000       0.00000000       0.00000000       0.00000000
H        0.00000000       1.62013441      12.29121606        2       1.00000000       0.00000000       0.00000000       0.00000000       0.00000000       0.00000000       0.00000000
H        2.80615512       1.62013441      12.29121606        2       1.00000000       0.00000000       0.00000000       0.00000000       0.00000000       0.00000000       0.00000000
H        1.40307756       4.05033604      12.29121606        2       1.00000000       0.00000000       0.00000000       0.00000000       0.00000000       0.00000000       0.00000000
H        4.20923268       4.05033604      12.29121606        2       1.00000000       0.00000000       0.00000000       0.00000000       0.00000000       0.00000000       0.00000000
H        0.00000000       0.00000000      14.58243212        1       1.00000000       0.00000000       0.00000000       0.00000000       0.00000000       0.00000000       0.00000000
H        2.80615512       0.00000000      14.58243212        1       1.00000000       0.00000000       0.00000000       0.00000000       0.00000000       0.00000000       0.00000000
H        1.40307756       2.43020162      14.58243212        1       1.00000000       0.00000000       0.00000000       0.00000000       0.00000000       0.00000000       0.00000000
H        4.20923268       2.43020162      14.58243212        1       1.00000000       0.00000000       0.00000000       0.00000000       0.00000000       0.00000000       0.00000000
H        5.61231080       1.62013421      16.81106530        0       1.00000000       0.00000047       0.00000016       0.00000064       0.00079309      -0.00105312      -0.00000228
H        1.40307681       4.05033539       7.77136759        0       1.00000000      -0.00000029       0.00000131      -0.00000060      -0.00156846       0.00224142      -0.00000237
H        2.80615579       1.62013410      16.81106543        0       1.00000000       0.00000048       0.00000008      -0.00000058      -0.00079325      -0.00100955      -0.00000074
H       -0.00000047       1.62013395       7.77136591        0       1.00000000       0.00000006      -0.00000041       0.00000007      -0.00337205      -0.00223249      -0.00000358
H        1.40307809       4.05033603      16.81106419        0       1.00000000       0.00000149      -0.00000069       0.00000032      -0.00073130       0.00102176       0.00000103
H        4.20923210       4.05033649       7.77136685        0       1.00000000      -0.00000034      -0.00000169      -0.00000096       0.00157187       0.00223789       0.00000260
H        4.20923272       4.05033590      16.81106555        0       1.00000000       0.00000041      -0.00000027      -0.00000104       0.00073005       0.00104015      -0.00000400
H        2.80615511       1.62013486       7.77136736        0       1.00000000      -0.00000024      -0.00000006      -0.00000021       0.00336820      -0.00224670       0.00000316
20
Lattice="5.612310241546866 0.0 0.0 0.0 4.860403243099165 0.0 0.0 0.0 24.582432123328676" Properties=species:S:1:pos:R:3:tags:I:1:masses:R:1:momenta:R:3:forces:R:3 KEmax=25.851991011651638 iter=239999 volume=670.5618179858607 ns_energy=-13.62146081437151 last_walked_iter_clone=236508 energy=-13.62145586320573 stress="0.02572914435486268 -4.3262940292784825e-09 8.7701882499301e-09 -4.3262940292784825e-09 0.02572922645890103 7.969854393900009e-09 8.7701882499301e-09 7.969854393900009e-09 0.013195114738148852" pbc="T T F"
H        1.40307756       0.81006721      10.00000000        3       1.00000000       0.00000000       0.00000000       0.00000000       0.00000000       0.00000000       0.00000000
H        4.20923268       0.81006721      10.00000000        3       1.00000000       0.00000000       0.00000000       0.00000000       0.00000000       0.00000000       0.00000000
H        0.00000000       3.24026883      10.00000000        3       1.00000000       0.00000000       0.00000000       0.00000000       0.00000000       0.00000000       0.00000000
H        2.80615512       3.24026883      10.00000000        3       1.00000000       0.00000000       0.00000000       0.00000000       0.00000000       0.00000000       0.00000000
H        0.00000000       1.62013441      12.29121606        2       1.00000000       0.00000000       0.00000000       0.00000000       0.00000000       0.00000000       0.00000000
H        2.80615512       1.62013441      12.29121606        2       1.00000000       0.00000000       0.00000000       0.00000000       0.00000000       0.00000000       0.00000000
H        1.40307756       4.05033604      12.29121606        2       1.00000000       0.00000000       0.00000000       0.00000000       0.00000000       0.00000000       0.00000000
H        4.20923268       4.05033604      12.29121606        2       1.00000000       0.00000000       0.00000000       0.00000000       0.00000000       0.00000000       0.00000000
H        0.00000000       0.00000000      14.58243212        1       1.00000000       0.00000000       0.00000000       0.00000000       0.00000000       0.00000000       0.00000000
H        2.80615512       0.00000000      14.58243212        1       1.00000000       0.00000000       0.00000000       0.00000000       0.00000000       0.00000000       0.00000000
H        1.40307756       2.43020162      14.58243212        1       1.00000000       0.00000000       0.00000000       0.00000000       0.00000000       0.00000000       0.00000000
H        4.20923268       2.43020162      14.58243212        1       1.00000000       0.00000000       0.00000000       0.00000000       0.00000000       0.00000000       0.00000000
H        5.61231162       1.62013466      16.81106487        0       1.00000000       0.00000108      -0.00000062       0.00000101       0.00079309      -0.00105312      -0.00000228
H        1.40307730       4.05033640       7.77136831        0       1.00000000       0.00000024       0.00000053       0.00000034      -0.00156846       0.00224142      -0.00000237
H        2.80615580       1.62013452      16.81106465        0       1.00000000      -0.00000010       0.00000051       0.00000038      -0.00079325      -0.00100955      -0.00000074
H        5.61231085       1.62013452       7.77136630        0       1.00000000      -0.00000031       0.00000026       0.00000052      -0.00337205      -0.00223249      -0.00000358
H        1.40307870       4.05033702      16.81106514        0       1.00000000       0.00000052       0.00000094      -0.00000004      -0.00073130       0.00102176       0.00000103
H        4.20923292       4.05033652       7.77136706        0       1.00000000      -0.00000067      -0.00000046      -0.00000012       0.00157187       0.00223789       0.00000260
H        4.20923384       4.05033652      16.81106536        0       1.00000000      -0.00000022      -0.00000095      -0.00000136       0.00073005       0.00104015      -0.00000400
H        2.80615612       1.62013455       7.77136741        0       1.00000000       0.00000104       0.00000063       0.00000021       0.00336820      -0.00224670       0.00000316
20
Lattice="5.612310241546866 0.0 0.0 0.0 4.860403243099165 0.0 0.0 0.0 24.582432123328676" Properties=species:S:1:pos:R:3:tags:I:1:masses:R:1:momenta:R:3:forces:R:3 KEmax=25.851991011651638 iter=239999 volume=670.5618179858607 ns_energy=-13.621460814371554 last_walked_iter_clone=236734 energy=-13.62145586320573 stress="0.02572914435486268 -4.3262940292784825e-09 8.7701882499301e-09 -4.3262940292784825e-09 0.02572922645890103 7.969854393900009e-09 8.7701882499301e-09 7.969854393900009e-09 0.013195114738148852" pbc="T T F"
H        1.40307756       0.81006721      10.00000000        3       1.00000000       0.00000000       0.00000000       0.00000000       0.00000000       0.00000000       0.00000000
H        4.20923268       0.81006721      10.00000000        3       1.00000000       0.00000000       0.00000000       0.00000000       0.00000000       0.00000000       0.00000000
H        0.00000000       3.24026883      10.00000000        3       1.00000000       0.00000000       0.00000000       0.00000000       0.00000000       0.00000000       0.00000000
H        2.80615512       3.24026883      10.00000000        3       1.00000000       0.00000000       0.00000000       0.00000000       0.00000000       0.00000000       0.00000000
H        0.00000000       1.62013441      12.29121606        2       1.00000000       0.00000000       0.00000000       0.00000000       0.00000000       0.00000000       0.00000000
H        2.80615512       1.62013441      12.29121606        2       1.00000000       0.00000000       0.00000000       0.00000000       0.00000000       0.00000000       0.00000000
H        1.40307756       4.05033604      12.29121606        2       1.00000000       0.00000000       0.00000000       0.00000000       0.00000000       0.00000000       0.00000000
H        4.20923268       4.05033604      12.29121606        2       1.00000000       0.00000000       0.00000000       0.00000000       0.00000000       0.00000000       0.00000000
H        0.00000000       0.00000000      14.58243212        1       1.00000000       0.00000000       0.00000000       0.00000000       0.00000000       0.00000000       0.00000000
H        2.80615512       0.00000000      14.58243212        1       1.00000000       0.00000000       0.00000000       0.00000000       0.00000000       0.00000000       0.00000000
H        1.40307756       2.43020162      14.58243212        1       1.00000000       0.00000000       0.00000000       0.00000000       0.00000000       0.00000000       0.00000000
H        4.20923268       2.43020162      14.58243212        1       1.00000000       0.00000000       0.00000000       0.00000000       0.00000000       0.00000000       0.00000000
H        5.61231144       1.62013454      16.81106567        0       1.00000000       0.00000176      -0.00000053       0.00000078       0.00079309      -0.00105312      -0.00000228
H        1.40307775       4.05033646       7.77136755        0       1.00000000      -0.00000108      -0.00000045      -0.00000065      -0.00156846       0.00224142      -0.00000237
H        2.80615525       1.62013476      16.81106521        0       1.00000000      -0.00000013      -0.00000023       0.00000006      -0.00079325      -0.00100955      -0.00000074
H       -0.00000040       1.62013491       7.77136793        0       1.00000000      -0.00000156      -0.00000052       0.00000025      -0.00337205      -0.00223249      -0.00000358
H        1.40307770       4.05033565      16.81106548        0       1.00000000      -0.00000021       0.00000052      -0.00000082      -0.00073130       0.00102176       0.00000103
H        4.20923238       4.05033641       7.77136775        0       1.00000000       0.00000016       0.00000078      -0.00000091       0.00157187       0.00223789       0.00000260
H        4.20923284       4.05033610      16.81106404        0       1.00000000       0.00000050      -0.00000013       0.00000052       0.00073005       0.00104015      -0.00000400
H        2.80615531       1.62013426       7.77136683        0       1.00000000      -0.00000008      -0.00000003       0.00000019       0.00336820      -0.00224670       0.00000316
20
Lattice="5.612310241546866 0.0 0.0 0.0 4.860403243099165 0.0 0.0 0.0 24.582432123328676" Properties=species:S:1:pos:R:3:tags:I:1:masses:R:1:momenta:R:3:forces:R:3 KEmax=25.851991011651638 iter=239999 volume=670.5618179858607 ns_energy=-13.621460814371584 last_walked_iter_clone=239008 energy=-13.62145586320573 stress="0.02572914435486268 -4.3262940292784825e-09 8.7701882499301e-09 -4.3262940292784825e-09 0.02572922645890103 7.969854393900009e-09 8.7701882499301e-09 7.969854393900009e-09 0.013195114738148852" pbc="T T F"
H        1.40307756       0.81006721      10.00000000        3       1.00000000       0.00000000       0.00000000       0.00000000       0.00000000       0.00000000       0.00000000