20
Lattice="5.612310241546866 0.0 0.0 0.0 4.860403243099165 0.0 0.0 0.0 24.582432123328676" Properties=species:S:1:pos:R:3:tags:I:1:masses:R:1:momenta:R:3:forces:R:3 KEmax=25.851991011651638 iter=146263 volume=670.5618179858607 ns_energy=-13.621460771761297 last_walked_iter_clone=146128 energy=-13.62146079097923 stress="0.025729152592170398 -2.3211648403413476e-07 4.6673152586713915e-07 -2.3211648403413476e-07 0.025729966165480168 8.176414462033797e-07 4.6673152586713915e-07 8.176414462033797e-07 0.01319630794193991" pbc="T T F"
H        1.40307756       0.81006721      10.00000000        3       1.00000000       0.00000000       0.00000000       0.00000000       0.00000000       0.00000000       0.00000000
H        4.20923268       0.81006721      10.00000000        3       1.00000000       0.00000000       0.00000000       0.00000000       0.00000000       0.00000000       0.00000000
H        0.00000000       3.24026883      10.00000000        3       1.00000000       0.00000000       0.00000000       0.00000000       0.00000000       0.00000000       0.00000000
H        2.80615512       3.24026883      10.00000000        3       1.00000000       0.00000000       0.00000000       0.00000000       0.00000000       0.00000000       0.00000000
H        0.00000000       1.62013441      12.29121606        2       1.00000000       0.00000000       0.00000000       0.00000000       0.00000000       0.00000000       0.00000000
H        2.80615512       1.62013441      12.29121606        2       1.00000000       0.00000000       0.00000000       0.00000000       0.00000000       0.00000000       0.00000000
H        1.40307756       4.05033604      12.29121606        2       1.00000000       0.00000000       0.00000000       0.00000000       0.00000000       0.00000000       0.00000000
H        4.20923268       4.05033604      12.29121606        2       1.00000000       0.00000000       0.00000000       0.00000000       0.00000000       0.00000000       0.00000000
H        0.00000000       0.00000000      14.58243212        1       1.00000000       0.00000000       0.00000000       0.00000000       0.00000000       0.00000000       0.00000000
H        2.80615512       0.00000000      14.58243212        1       1.00000000       0.00000000       0.00000000       0.00000000       0.00000000       0.00000000       0.00000000
H        1.40307756       2.43020162      14.58243212        1       1.00000000       0.00000000       0.00000000       0.00000000       0.00000000       0.00000000       0.00000000
H        4.20923268       2.43020162      14.58243212        1       1.00000000       0.00000000       0.00000000       0.00000000       0.00000000       0.00000000       0.00000000
H        5.61228723       1.62009592      16.81110366        0       1.00000000       0.00006461      -0.00005231       0.00008288      -0.00015782      -0.00001230       0.00009921
H        1.40313111       4.05029695       7.77137904        0       1.00000000       0.00002443       0.00000772      -0.00001181      -0.00013730       0.00005756       0.00008408
H        2.80611312       1.62010704      16.81108383        0       1.00000000      -0.00001973       0.00006246       0.00000875       0.00012204      -0.00001040      -0.00005836
H        5.61232779       1.62009259       7.77140795        0       1.00000000       0.00000607       0.00003590       0.00002263       0.00003532      -0.00001562      -0.00000408
H        1.40303537       4.05030999      16.81106165        0       1.00000000       0.00010005      -0.00000299      -0.00006906      -0.00006432      -0.00004202       0.00002080
H        4.20924333       4.05031784       7.77140558        0       1.00000000       0.00002459      -0.00003171      -0.00007100       0.00006226       0.00006187       0.00007116
H        4.20921494       4.05032404      16.81106338        0       1.00000000      -0.00001563      -0.00001556      -0.00001472       0.00009999       0.00009457       0.00004770
H        2.80614145       1.62011012       7.77135095        0       1.00000000       0.00006668       0.00005405      -0.00000703       0.00009116       0.00001633       0.00010463
20
Lattice="5.612310241546866 0.0 0.0 0.0 4.860403243099165 0.0 0.0 0.0 24.582432123328676" Properties=species:S:1:pos:R:3:tags:I:1:masses:R:1:momenta:R:3:forces:R:3 KEmax=25.851991011651638 iter=146263 volume=670.5618179858607 ns_energy=-13.621460771438295 last_walked_iter_clone=146225 energy=-13.62146079097923 stress="0.025729152592170398 -2.3211648403413476e-07 4.6673152586713915e-07 -2.3211648403413476e-07 0.025729966165480168 8.176414462033797e-07 4.6673152586713915e-07 8.176414462033797e-07 0.01319630794193991" pbc="T T F"
H        1.40307756       0.81006721      10.00000000        3       1.00000000       0.00000000       0.00000000       0.00000000       0.00000000       0.00000000       0.00000000
H        4.20923268       0.81006721      10.00000000        3       1.00000000       0.00000000       0.00000000       0.00000000       0.00000000       0.00000000       0.00000000
H        0.00000000       3.24026883      10.00000000        3       1.00000000       0.00000000       0.00000000       0.00000000       0.00000000       0.00000000       0.00000000
H        2.80615512       3.24026883      10.00000000        3       1.00000000       0.00000000       0.00000000       0.00000000       0.00000000       0.00000000       0.00000000
H        0.00000000       1.62013441      12.29121606        2       1.00000000       0.00000000       0.00000000       0.00000000       0.00000000       0.00000000       0.00000000
H        2.80615512       1.62013441      12.29121606        2       1.00000000       0.00000000       0.00000000       0.00000000       0.00000000       0.00000000       0.00000000
H        1.40307756       4.05033604      12.29121606        2       1.00000000       0.00000000       0.00000000       0.00000000       0.00000000       0.00000000       0.00000000
H        4.20923268       4.05033604      12.29121606        2       1.00000000       0.00000000       0.00000000       0.00000000       0.00000000       0.00000000       0.00000000
H        0.00000000       0.00000000      14.58243212        1       1.00000000       0.00000000       0.00000000       0.00000000       0.00000000       0.00000000       0.00000000
H        2.80615512       0.00000000      14.58243212        1       1.00000000       0.00000000       0.00000000       0.00000000       0.00000000       0.00000000       0.00000000
H        1.40307756       2.43020162      14.58243212        1       1.00000000       0.00000000       0.00000000       0.00000000       0.00000000       0.00000000       0.00000000
H        4.20923268       2.43020162      14.58243212        1       1.00000000       0.00000000       0.00000000       0.00000000       0.00000000       0.00000000       0.00000000
H        0.00000731       1.62011745      16.81109864        0       1.00000000      -0.00005349      -0.00005163      -0.00003485      -0.00015782      -0.00001230       0.00009921
H        1.40309685       4.05033800       7.77135692        0       1.00000000      -0.00005404      -0.00010431       0.00003379      -0.00013730       0.00005756       0.00008408
H        2.80616114       1.62015368      16.81103542        0       1.00000000      -0.00000118       0.00010666       0.00001095       0.00012204      -0.00001040      -0.00005836
H        0.00000086       1.62014368       7.77135915        0       1.00000000       0.00004636      -0.00004341       0.00002216       0.00003532      -0.00001562      -0.00000408
H        1.40310656       4.05028209      16.81106417        0       1.00000000      -0.00002222      -0.00002519       0.00002279      -0.00006432      -0.00004202       0.00002080
H        4.20925795       4.05032888       7.77138193        0       1.00000000       0.00003022      -0.00001748      -0.00004655       0.00006226       0.00006187       0.00007116
H        4.20927568       4.05032461      16.81104225        0       1.00000000       0.00004577      -0.00004695       0.00000221       0.00009999       0.00009457       0.00004770
H        2.80617295       1.62016113       7.77132581        0       1.00000000      -0.00002838       0.00006479      -0.00003201       0.00009116       0.00001633       0.00010463
20
Lattice="5.612310241546866 0.0 0.0 0.0 4.860403243099165 0.0 0.0 0.0 24.582432123328676" Properties=species:S:1:pos:R:3:tags:I:1:masses:R:1:momenta:R:3:forces:R:3 KEmax=25.851991011651638 iter=146263 volume=670.5618179858607 ns_energy=-13.621460771330334 last_walked_iter_clone=146256 energy=-13.62146079097923 stress="0.025729152592170398 -2.3211648403413476e-07 4.6673152586713915e-07 -2.3211648403413476e-07 0.025729966165480168 8.176414462033797e-07 4.6673152586713915e-07 8.176414462033797e-07 0.01319630794193991" pbc="T T F"
H        1.40307756       0.81006721      10.00000000        3       1.00000000       0.00000000       0.00000000       0.00000000       0.00000000       0.00000000       0.00000000
H        4.20923268       0.81006721      10.00000000        3       1.00000000       0.00000000       0.00000000       0.00000000       0.00000000       0.00000000       0.00000000
H        0.00000000       3.24026883      10.00000000        3       1.00000000       0.00000000       0.00000000       0.00000000       0.00000000       0.00000000       0.00000000
H        2.80615512       3.24026883      10.00000000        3       1.00000000       0.00000000       0.00000000       0.00000000       0.00000000       0.00000000       0.00000000
H        0.00000000       1.62013441      12.29121606        2       1.00000000       0.00000000       0.00000000       0.00000000       0.00000000       0.00000000       0.00000000
H        2.80615512       1.62013441      12.29121606        2       1.00000000       0.00000000       0.00000000       0.00000000       0.00000000       0.00000000       0.00000000
H        1.40307756       4.05033604      12.29121606        2       1.00000000       0.00000000       0.00000000       0.00000000       0.00000000       0.00000000       0.00000000
H        4.20923268       4.05033604      12.29121606        2       1.00000000       0.00000000       0.00000000       0.00000000       0.00000000       0.00000000       0.00000000
H        0.00000000       0.00000000      14.58243212        1       1.00000000       0.00000000       0.00000000       0.00000000       0.00000000       0.00000000       0.00000000
H        2.80615512       0.00000000      14.58243212        1       1.00000000       0.00000000       0.00000000       0.00000000       0.00000000       0.00000000       0.00000000
H        1.40307756       2.43020162      14.58243212        1       1.00000000       0.00000000       0.00000000       0.00000000       0.00000000       0.00000000       0.00000000
H        4.20923268       2.43020162      14.58243212        1       1.00000000       0.00000000       0.00000000       0.00000000       0.00000000       0.00000000       0.00000000
H        5.61229924       1.62011300      16.81110856        0       1.00000000      -0.00004325       0.00005189       0.00007280      -0.00015782      -0.00001230       0.00009921
H        1.40303652       4.05029957       7.77137477        0       1.00000000      -0.00003119       0.00001107      -0.00002683      -0.00013730       0.00005756       0.00008408
H        2.80619329       1.62015525      16.81105151        0       1.00000000       0.00003672       0.00000951      -0.00002423       0.00012204      -0.00001040      -0.00005836
H        5.61232975       1.62009919       7.77138293        0       1.00000000       0.00001680      -0.00002247      -0.00000263       0.00003532      -0.00001562      -0.00000408
H        1.40309915       4.05031209      16.81107092        0       1.00000000      -0.00001219       0.00000282       0.00000334      -0.00006432      -0.00004202       0.00002080
H        4.20920290       4.05033035       7.77137428        0       1.00000000       0.00006837       0.00003670       0.00002362       0.00006226       0.00006187       0.00007116
H        4.20921815       4.05032505      16.81112078        0       1.00000000       0.00002108       0.00006005       0.00002996       0.00009999       0.00009457       0.00004770
H        2.80613736       1.62010113       7.77133945        0       1.00000000       0.00009457       0.00000510      -0.00008980       0.00009116       0.00001633       0.00010463
20
Lattice="5.612310241546866 0.0 0.0 0.0 4.860403243099165 0.0 0.0 0.0 24.582432123328676" Properties=species:S:1:pos:R:3:tags:I:1:masses:R:1:momenta:R:3:forces:R:3 KEmax=25.851991011651638 iter=146263 volume=670.5618179858607 ns_energy=-13.621460770513872 last_walked_iter_clone=146136 energy=-13.62146079097923 stress="0.025729152592170398 -2.3211648403413476e-07 4.6673152586713915e-07 -2.3211648403413476e-07 0.025729966165480168 8.176414462033797e-07 4.6673152586713915e-07 8.176414462033797e-07 0.01319630794193991" pbc="T T F"
H        1.40307756       0.81006721      10.00000000        3       1.00000000       0.00000000       0.00000000       0.00000000       0.00000000       0.00000000       0.00000000
H        4.20923268       0.81006721      10.00000000        3       1.00000000       0.00000000       0.00000000       0.00000000       0.00000000       0.00000000       0.00000000
H        0.00000000       3.24026883      10.00000000        3       1.00000000       0.00000000       0.00000000       0.00000000       0.00000000       0.00000000       0.00000000
H        2.80615512       3.24026883      10.00000000        3       1.00000000       0.00000000       0.00000000       0.00000000       0.00000000       0.00000000       0.00000000
H        0.00000000       1.62013441      12.29121606        2       1.00000000       0.00000000       0.00000000       0.00000000       0.00000000       0.00000000       0.00000000
H        2.80615512       1.62013441      12.29121606        2       1.00000000       0.00000000       0.00000000       0.00000000       0.00000000       0.00000000       0.00000000
H        1.40307756       4.05033604      12.29121606        2       1.00000000       0.00000000       0.00000000       0.00000000       0.00000000       0.00000000       0.00000000
H        4.20923268       4.05033604      12.29121606        2       1.00000000       0.00000000       0.00000000       0.00000000       0.00000000       0.00000000       0.00000000
H        0.00000000       0.00000000      14.58243212        1       1.00000000       0.00000000       0.00000000       0.00000000       0.00000000       0.00000000       0.00000000
H        2.80615512       0.00000000      14.58243212        1       1.00000000       0.00000000       0.00000000       0.00000000       0.00000000       0.00000000       0.00000000
H        1.40307756       2.43020162      14.58243212        1       1.00000000       0.00000000       0.00000000       0.00000000       0.00000000       0.00000000       0.00000000
H        4.20923268       2.43020162      14.58243212        1       1.00000000       0.00000000       0.00000000       0.00000000       0.00000000       0.00000000       0.00000000
H        5.61230677       1.62012804      16.81109862        0       1.00000000      -0.00001081       0.00006667      -0.00003348      -0.00015782      -0.00001230       0.00009921
H        1.40305014       4.05032799       7.77138291        0       1.00000000       0.00004879      -0.00004431       0.00000638      -0.00013730       0.00005756       0.00008408
H        2.80612991       1.62017799      16.81101571        0       1.00000000       0.00002889      -0.00011210       0.00000817       0.00012204      -0.00001040      -0.00005836
H        5.61231965       1.62011638       7.77138234        0       1.00000000       0.00001537      -0.00000702      -0.00003425       0.00003532      -0.00001562      -0.00000408
H        1.40307954       4.05034964      16.81109234        0       1.00000000      -0.00001288      -0.00005878      -0.00001698      -0.00006432      -0.00004202       0.00002080
H        4.20919239       4.05038382       7.77136580        0       1.00000000      -0.00005468      -0.00002937      -0.00003111       0.00006226       0.00006187       0.00007116
H        4.20921426       4.05034764      16.81108098        0       1.00000000       0.00001356      -0.00006514      -0.00003772       0.00009999       0.00009457       0.00004770
H        2.80616634       1.62009009       7.77138030        0       1.00000000      -0.00000233      -0.00001448      -0.00000569       0.00009116       0.00001633       0.00010463
20
Lattice="5.612310241546866 0.0 0.0 0.0 4.860403243099165 0.0 0.0 0.0 24.582432123328676" Properties=species:S:1:pos:R:3:tags:I:1:masses:R:1:momenta:R:3:forces:R:3 KEmax=25.851991011651638 iter=146263 volume=670.5618179858607 ns_energy=-13.62146077075154 last_walked_iter_clone=146073 energy=-13.62146079097923 stress="0.025729152592170398 -2.3211648403413476e-07 4.6673152586713915e-07 -2.3211648403413476e-07 0.025729966165480168 8.176414462033797e-07 4.6673152586713915e-07 8.176414462033797e-07 0.01319630794193991" pbc="T T F"
H        1.40307756       0.81006721      10.00000000        3       1.00000000       0.00000000       0.00000000       0.00000000       0.00000000       0.00000000       0.00000000
H        4.20923268       0.81006721      10.00000000        3       1.00000000       0.00000000       0.00000000       0.00000000       0.00000000       0.00000000       0.00000000
H        0.00000000       3.24026883      10.00000000        3       1.00000000       0.00000000       0.00000000       0.00000000       0.00000000       0.00000000       0.00000000
H        2.80615512       3.24026883      10.00000000        3       1.00000000       0.00000000       0.00000000       0.00000000       0.00000000       0.00000000       0.00000000
H        0.00000000       1.62013441      12.29121606        2       1.00000000       0.00000000       0.00000000       0.00000000       0.00000000       0.00000000       0.00000000
H        2.80615512       1.62013441      12.29121606        2       1.00000000       0.00000000       0.00000000       0.00000000       0.00000000       0.00000000       0.00000000
H        1.40307756       4.05033604      12.29121606        2       1.00000000       0.00000000       0.00000000       0.00000000       0.00000000       0.00000000       0.00000000
H        4.20923268       4.05033604      12.29121606        2       1.00000000       0.00000000       0.00000000       0.00000000       0.00000000       0.00000000       0.00000000
H        0.00000000       0.00000000      14.58243212        1       1.00000000       0.00000000       0.00000000       0.00000000       0.00000000       0.00000000       0.00000000
H        2.80615512       0.00000000      14.58243212        1       1.00000000       0.00000000       0.00000000       0.00000000       0.00000000       0.00000000       0.00000000
H        1.40307756       2.43020162      14.58243212        1       1.00000000       0.00000000       0.00000000       0.00000000       0.00000000       0.00000000       0.00000000
H        4.20923268       2.43020162      14.58243212        1       1.00000000       0.00000000       0.00000000       0.00000000       0.00000000       0.00000000       0.00000000
H        0.00001707       1.62018284      16.81108718        0       1.00000000       0.00004839      -0.00003861       0.00004102      -0.00015782      -0.00001230       0.00009921
H        1.40305714       4.05032264       7.77136507        0       1.00000000      -0.00000143       0.00006299      -0.00001807      -0.00013730       0.00005756       0.00008408
H        2.80618557       1.62018208      16.81106048        0       1.00000000      -0.00003252       0.00003576       0.00004913       0.00012204      -0.00001040      -0.00005836
H        5.61228273       1.62014029       7.77137953        0       1.00000000       0.00009011      -0.00006537       0.00001516       0.00003532      -0.00001562      -0.00000408
H        1.40306557       4.05033863      16.81107826        0       1.00000000      -0.00009087      -0.00004062      -0.00008619      -0.00006432      -0.00004202       0.00002080
H        4.20922905       4.05033225       7.77140847        0       1.00000000       0.00002512      -0.00008809       0.00001471       0.00006226       0.00006187       0.00007116
H        4.20922703       4.05040175      16.81110198        0       1.00000000       0.00000841       0.00001550      -0.00000077       0.00009999       0.00009457       0.00004770
H        2.80611201       1.62012231       7.77136507        0       1.00000000      -0.00000737       0.00005397       0.00003900       0.00009116       0.00001633       0.00010463
20
Lattice="5.612310241546866 0.0 0.0 0.0 4.860403243099165 0.0 0.0 0.0 24.582432123328676" Properties=species:S:1:pos:R:3:tags:I:1:masses:R:1:momenta:R:3:forces:R:3 KEmax=25.851991011651638 iter=146263 volume=670.5618179858607 ns_energy=-13.621460771734458 last_walked_iter_clone=145962 energy=-13.62146079097923 stress="0.025729152592170398 -2.3211648403413476e-07 4.6673152586713915e-07 -2.3211648403413476e-07 0.025729966165480168 8.176414462033797e-07 4.6673152586713915e-07 8.176414462033797e-07 0.01319630794193991" pbc="T T F"
H        1.40307756       0.81006721      10.00000000        3       1.00000000       0.00000000       0.00000000       0.00000000       0.00000000       0.00000000       0.00000000
H        4.20923268       0.81006721      10.00000000        3       1.00000000       0.00000000       0.00000000       0.00000000       0.00000000       0.00000000       0.00000000
H        0.00000000       3.24026883      10.00000000        3       1.00000000       0.00000000       0.00000000       0.00000000       0.00000000       0.00000000       0.00000000
H        2.80615512       3.24026883      10.00000000        3       1.00000000       0.00000000       0.00000000       0.00000000       0.00000000       0.00000000       0.00000000
H        0.00000000       1.62013441      12.29121606        2       1.00000000       0.00000000       0.00000000       0.00000000       0.00000000       0.00000000       0.00000000
H        2.80615512       1.62013441      12.29121606        2       1.00000000       0.00000000       0.00000000       0.00000000       0.00000000       0.00000000       0.00000000
H        1.40307756       4.05033604      12.29121606        2       1.00000000       0.00000000       0.00000000       0.00000000       0.00000000       0.00000000       0.00000000
H        4.20923268       4.05033604      12.29121606        2       1.00000000       0.00000000       0.00000000       0.00000000       0.00000000       0.00000000       0.00000000
H        0.00000000       0.00000000      14.58243212        1       1.00000000       0.00000000       0.00000000       0.00000000       0.00000000       0.00000000       0.00000000
H        2.80615512       0.00000000      14.58243212        1       1.00000000       0.00000000       0.00000000       0.00000000       0.00000000       0.00000000       0.00000000
H        1.40307756       2.43020162      14.58243212        1       1.00000000       0.00000000       0.00000000       0.00000000       0.00000000       0.00000000       0.00000000
H        4.20923268       2.43020162      14.58243212        1       1.00000000       0.00000000       0.00000000       0.00000000       0.00000000       0.00000000       0.00000000
H        0.00002547       1.62015554      16.81108153        0       1.00000000       0.00002925      -0.00004155      -0.00003467      -0.00015782      -0.00001230       0.00009921
H        1.40306136       4.05034569       7.77132879        0       1.00000000       0.00004423      -0.00000965      -0.00006559      -0.00013730       0.00005756       0.00008408
H        2.80616020       1.62017496      16.81109260        0       1.00000000       0.00000040       0.00005346       0.00010261       0.00012204      -0.00001040      -0.00005836
H        5.61230355       1.62013343       7.77132992        0       1.00000000       0.00005825       0.00004462      -0.00003697       0.00003532      -0.00001562      -0.00000408
H        1.40308111       4.05036807      16.81112177        0       1.00000000      -0.00008029       0.00004340       0.00000301      -0.00006432      -0.00004202       0.00002080
H        4.20922299       4.05034294       7.77134850        0       1.00000000       0.00004855      -0.00005044      -0.00001278       0.00006226       0.00006187       0.00007116
H        4.20927134       4.05035778      16.81106768        0       1.00000000      -0.00000513      -0.00000759       0.00002003       0.00009999       0.00009457       0.00004770
H        2.80613215       1.62017745       7.77132134        0       1.00000000      -0.00002616      -0.00005002      -0.00001970       0.00009116       0.00001633       0.00010463
20
Lattice="5.612310241546866 0.0 0.0 0.0 4.860403243099165 0.0 0.0 0.0 24.582432123328676" Properties=species:S:1:pos:R:3:tags:I:1:masses:R:1:momenta:R:3:forces:R:3 KEmax=25.851991011651638 iter=146263 volume=670.5618179858607 ns_energy=-13.62146077179075 last_walked_iter_clone=146093 energy=-13.62146079097923 stress="0.025729152592170398 -2.3211648403413476e-07 4.6673152586713915e-07 -2.3211648403413476e-07 0.025729966165480168 8.176414462033797e-07 4.6673152586713915e-07 8.176414462033797e-07 0.01319630794193991" pbc="T T F"
H        1.40307756       0.81006721      10.00000000        3       1.00000000       0.00000000       0.00000000       0.00000000       0.00000000       0.00000000       0.00000000
H        4.20923268       0.81006721      10.00000000        3       1.00000000       0.00000000       0.00000000       0.00000000       0.00000000       0.00000000       0.00000000
H        0.00000000       3.24026883      10.00000000        3       1.00000000       0.00000000       0.00000000       0.00000000       0.00000000       0.00000000       0.00000000
H        2.80615512       3.24026883      10.00000000        3       1.00000000       0.00000000       0.00000000       0.00000000       0.00000000       0.00000000       0.00000000
H        0.00000000       1.62013441      12.29121606        2       1.00000000       0.00000000       0.00000000       0.00000000       0.00000000       0.00000000       0.00000000
H        2.80615512       1.62013441      12.29121606        2       1.00000000       0.00000000       0.00000000       0.00000000       0.00000000       0.00000000       0.00000000
H        1.40307756       4.05033604      12.29121606        2       1.00000000       0.00000000       0.00000000       0.00000000       0.00000000       0.00000000       0.00000000
H        4.20923268       4.05033604      12.29121606        2       1.00000000       0.00000000       0.00000000       0.00000000       0.00000000       0.00000000       0.00000000
H        0.00000000       0.00000000      14.58243212        1       1.00000000       0.00000000       0.00000000       0.00000000       0.00000000       0.00000000       0.00000000
H        2.80615512       0.00000000      14.58243212        1       1.00000000       0.00000000       0.00000000       0.00000000       0.00000000       0.00000000       0.00000000
H        1.40307756       2.43020162      14.58243212        1       1.00000000       0.00000000       0.00000000       0.00000000       0.00000000       0.00000000       0.00000000
H        4.20923268       2.43020162      14.58243212        1       1.00000000       0.00000000       0.00000000       0.00000000       0.00000000       0.00000000       0.00000000
H        5.61232143       1.62011107      16.81109393        0       1.00000000       0.00004145       0.00000332      -0.00001881      -0.00015782      -0.00001230       0.00009921
H        1.40306585       4.05025427       7.77139229        0       1.00000000       0.00008080       0.00001009      -0.00005713      -0.00013730       0.00005756       0.00008408
H        2.80617479       1.62011335      16.81105634        0       1.00000000       0.00001746       0.00000864      -0.00003397       0.00012204      -0.00001040      -0.00005836
H        5.61233717       1.62009895       7.77133058        0       1.00000000       0.00002250      -0.00003016       0.00000899       0.00003532      -0.00001562      -0.00000408
H        1.40311980       4.05033182      16.81107234        0       1.00000000      -0.00001456      -0.00010887       0.00004078      -0.00006432      -0.00004202       0.00002080
H        4.20927298       4.05031724       7.77140360        0       1.00000000       0.00001569      -0.00008507      -0.00002601       0.00006226       0.00006187       0.00007116
H        4.20925452       4.05032811      16.81106699        0       1.00000000       0.00002875      -0.00008553       0.00000498       0.00009999       0.00009457       0.00004770
H        2.80617792       1.62009123       7.77139137        0       1.00000000      -0.00004966      -0.00000143      -0.00001683       0.00009116       0.00001633       0.00010463
20
Lattice="5.612310241546866 0.0 0.0 0.0 4.860403243099165 0.0 0.0 0.0 24.582432123328676" Properties=species:S:1:pos:R:3:tags:I:1:masses:R:1:momenta:R:3:forces:R:3 KEmax=25.851991011651638 iter=146263 volume=670.5618179858607 ns_energy=-13.621460772037828 last_walked_iter_clone=146097 energy=-13.62146079097923 stress="0.025729152592170398 -2.3211648403413476e-07 4.6673152586713915e-07 -2.3211648403413476e-07 0.025729966165480168 8.176414462033797e-07 4.6673152586713915e-07 8.176414462033797e-07 0.01319630794193991" pbc="T T F"
H        1.40307756       0.81006721      10.00000000        3       1.00000000       0.00000000       0.00000000       0.00000000       0.00000000       0.00000000       0.00000000