20
Lattice="5.612310241546866 0.0 0.0 0.0 4.860403243099165 0.0 0.0 0.0 24.582432123328676" Properties=species:S:1:pos:R:3:tags:I:1:masses:R:1:momenta:R:3:forces:R:3 KEmax=25.851991011651638 iter=225147 volume=670.5618179858607 ns_energy=-13.621460814365214 last_walked_iter_clone=224913 energy=-13.621460814370174 stress="0.025729358256957817 -1.3148031692467189e-08 2.6436856420955583e-08 -1.3148031692467189e-08 0.025729353868826226 -4.493350895637226e-09 2.6436856420955583e-08 -4.493350895637226e-09 0.013195080197082265" pbc="T T F"
H        1.40307756       0.81006721      10.00000000        3       1.00000000       0.00000000       0.00000000       0.00000000       0.00000000       0.00000000       0.00000000
H        4.20923268       0.81006721      10.00000000        3       1.00000000       0.00000000       0.00000000       0.00000000       0.00000000       0.00000000       0.00000000
H        0.00000000       3.24026883      10.00000000        3       1.00000000       0.00000000       0.00000000       0.00000000       0.00000000       0.00000000       0.00000000
H        2.80615512       3.24026883      10.00000000        3       1.00000000       0.00000000       0.00000000       0.00000000       0.00000000       0.00000000       0.00000000
H        0.00000000       1.62013441      12.29121606        2       1.00000000       0.00000000       0.00000000       0.00000000       0.00000000       0.00000000       0.00000000
H        2.80615512       1.62013441      12.29121606        2       1.00000000       0.00000000       0.00000000       0.00000000       0.00000000       0.00000000       0.00000000
H        1.40307756       4.05033604      12.29121606        2       1.00000000       0.00000000       0.00000000       0.00000000       0.00000000       0.00000000       0.00000000
H        4.20923268       4.05033604      12.29121606        2       1.00000000       0.00000000       0.00000000       0.00000000       0.00000000       0.00000000       0.00000000
H        0.00000000       0.00000000      14.58243212        1       1.00000000       0.00000000       0.00000000       0.00000000       0.00000000       0.00000000       0.00000000
H        2.80615512       0.00000000      14.58243212        1       1.00000000       0.00000000       0.00000000       0.00000000       0.00000000       0.00000000       0.00000000
H        1.40307756       2.43020162      14.58243212        1       1.00000000       0.00000000       0.00000000       0.00000000       0.00000000       0.00000000       0.00000000
H        4.20923268       2.43020162      14.58243212        1       1.00000000       0.00000000       0.00000000       0.00000000       0.00000000       0.00000000       0.00000000
H        0.00000019       1.62013447      16.81106479        0       1.00000000       0.00000069      -0.00000220      -0.00000029      -0.00000177      -0.00000147      -0.00000008
H        1.40307886       4.05033615       7.77136722        0       1.00000000      -0.00000001       0.00000012      -0.00000169       0.00000048      -0.00000162       0.00000214
H        2.80615477       1.62013468      16.81106490        0       1.00000000       0.00000045      -0.00000004       0.00000059       0.00000267      -0.00000178       0.00000223
H        0.00000120       1.62013469       7.77136606        0       1.00000000       0.00000015      -0.00000026      -0.00000104       0.00000199       0.00000251       0.00000028
H        1.40307749       4.05033583      16.81106451        0       1.00000000      -0.00000015       0.00000041       0.00000135       0.00000266       0.00000172      -0.00000189
H        4.20923440       4.05033567       7.77136800        0       1.00000000       0.00000060      -0.00000201      -0.00000104       0.00000041       0.00000026       0.00000157
H        4.20923325       4.05033666      16.81106419        0       1.00000000       0.00000000       0.00000086       0.00000078      -0.00000609       0.00000119       0.00000167
H        2.80615610       1.62013389       7.77136725        0       1.00000000       0.00000104      -0.00000014      -0.00000167      -0.00000249      -0.00000199      -0.00000026
20
Lattice="5.612310241546866 0.0 0.0 0.0 4.860403243099165 0.0 0.0 0.0 24.582432123328676" Properties=species:S:1:pos:R:3:tags:I:1:masses:R:1:momenta:R:3:forces:R:3 KEmax=25.851991011651638 iter=225147 volume=670.5618179858607 ns_energy=-13.621460814363576 last_walked_iter_clone=224909 energy=-13.621460814370174 stress="0.025729358256957817 -1.3148031692467189e-08 2.6436856420955583e-08 -1.3148031692467189e-08 0.025729353868826226 -4.493350895637226e-09 2.6436856420955583e-08 -4.493350895637226e-09 0.013195080197082265" pbc="T T F"
H        1.40307756       0.81006721      10.00000000        3       1.00000000       0.00000000       0.00000000       0.00000000       0.00000000       0.00000000       0.00000000
H        4.20923268       0.81006721      10.00000000        3       1.00000000       0.00000000       0.00000000       0.00000000       0.00000000       0.00000000       0.00000000
H        0.00000000       3.24026883      10.00000000        3       1.00000000       0.00000000       0.00000000       0.00000000       0.00000000       0.00000000       0.00000000
H        2.80615512       3.24026883      10.00000000        3       1.00000000       0.00000000       0.00000000       0.00000000       0.00000000       0.00000000       0.00000000
H        0.00000000       1.62013441      12.29121606        2       1.00000000       0.00000000       0.00000000       0.00000000       0.00000000       0.00000000       0.00000000
H        2.80615512       1.62013441      12.29121606        2       1.00000000       0.00000000       0.00000000       0.00000000       0.00000000       0.00000000       0.00000000
H        1.40307756       4.05033604      12.29121606        2       1.00000000       0.00000000       0.00000000       0.00000000       0.00000000       0.00000000       0.00000000
H        4.20923268       4.05033604      12.29121606        2       1.00000000       0.00000000       0.00000000       0.00000000       0.00000000       0.00000000       0.00000000
H        0.00000000       0.00000000      14.58243212        1       1.00000000       0.00000000       0.00000000       0.00000000       0.00000000       0.00000000       0.00000000
H        2.80615512       0.00000000      14.58243212        1       1.00000000       0.00000000       0.00000000       0.00000000       0.00000000       0.00000000       0.00000000
H        1.40307756       2.43020162      14.58243212        1       1.00000000       0.00000000       0.00000000       0.00000000       0.00000000       0.00000000       0.00000000
H        4.20923268       2.43020162      14.58243212        1       1.00000000       0.00000000       0.00000000       0.00000000       0.00000000       0.00000000       0.00000000
H        5.61231095       1.62013339      16.81106565        0       1.00000000       0.00000056      -0.00000049       0.00000005      -0.00000177      -0.00000147      -0.00000008
H        1.40307848       4.05033607       7.77136672        0       1.00000000      -0.00000086       0.00000113      -0.00000003       0.00000048      -0.00000162       0.00000214
H        2.80615590       1.62013314      16.81106576        0       1.00000000      -0.00000054       0.00000002      -0.00000014       0.00000267      -0.00000178       0.00000223
H        0.00000055       1.62013406       7.77136692        0       1.00000000       0.00000081       0.00000046      -0.00000021       0.00000199       0.00000251       0.00000028
H        1.40307854       4.05033454      16.81106552        0       1.00000000       0.00000023       0.00000297      -0.00000130       0.00000266       0.00000172      -0.00000189
H        4.20923297       4.05033569       7.77136812        0       1.00000000      -0.00000041       0.00000193       0.00000041       0.00000041       0.00000026       0.00000157
H        4.20923319       4.05033534      16.81106544        0       1.00000000      -0.00000011      -0.00000228       0.00000052      -0.00000609       0.00000119       0.00000167
H        2.80615533       1.62013448       7.77136809        0       1.00000000      -0.00000021       0.00000063       0.00000020      -0.00000249      -0.00000199      -0.00000026
20
Lattice="5.612310241546866 0.0 0.0 0.0 4.860403243099165 0.0 0.0 0.0 24.582432123328676" Properties=species:S:1:pos:R:3:tags:I:1:masses:R:1:momenta:R:3:forces:R:3 KEmax=25.851991011651638 iter=225147 volume=670.5618179858607 ns_energy=-13.621460814363628 last_walked_iter_clone=224835 energy=-13.621460814370174 stress="0.025729358256957817 -1.3148031692467189e-08 2.6436856420955583e-08 -1.3148031692467189e-08 0.025729353868826226 -4.493350895637226e-09 2.6436856420955583e-08 -4.493350895637226e-09 0.013195080197082265" pbc="T T F"
H        1.40307756       0.81006721      10.00000000        3       1.00000000       0.00000000       0.00000000       0.00000000       0.00000000       0.00000000       0.00000000
H        4.20923268       0.81006721      10.00000000        3       1.00000000       0.00000000       0.00000000       0.00000000       0.00000000       0.00000000       0.00000000
H        0.00000000       3.24026883      10.00000000        3       1.00000000       0.00000000       0.00000000       0.00000000       0.00000000       0.00000000       0.00000000
H        2.80615512       3.24026883      10.00000000        3       1.00000000       0.00000000       0.00000000       0.00000000       0.00000000       0.00000000       0.00000000
H        0.00000000       1.62013441      12.29121606        2       1.00000000       0.00000000       0.00000000       0.00000000       0.00000000       0.00000000       0.00000000
H        2.80615512       1.62013441      12.29121606        2       1.00000000       0.00000000       0.00000000       0.00000000       0.00000000       0.00000000       0.00000000
H        1.40307756       4.05033604      12.29121606        2       1.00000000       0.00000000       0.00000000       0.00000000       0.00000000       0.00000000       0.00000000
H        4.20923268       4.05033604      12.29121606        2       1.00000000       0.00000000       0.00000000       0.00000000       0.00000000       0.00000000       0.00000000
H        0.00000000       0.00000000      14.58243212        1       1.00000000       0.00000000       0.00000000       0.00000000       0.00000000       0.00000000       0.00000000
H        2.80615512       0.00000000      14.58243212        1       1.00000000       0.00000000       0.00000000       0.00000000       0.00000000       0.00000000       0.00000000
H        1.40307756       2.43020162      14.58243212        1       1.00000000       0.00000000       0.00000000       0.00000000       0.00000000       0.00000000       0.00000000
H        4.20923268       2.43020162      14.58243212        1       1.00000000       0.00000000       0.00000000       0.00000000       0.00000000       0.00000000       0.00000000
H       -0.00000018       1.62013476      16.81106577        0       1.00000000       0.00000032       0.00000039      -0.00000073      -0.00000177      -0.00000147      -0.00000008
H        1.40307748       4.05033605       7.77136733        0       1.00000000      -0.00000129       0.00000145      -0.00000061       0.00000048      -0.00000162       0.00000214
H        2.80615447       1.62013317      16.81106444        0       1.00000000      -0.00000063       0.00000187      -0.00000176       0.00000267      -0.00000178       0.00000223
H        0.00000011       1.62013315       7.77136641        0       1.00000000       0.00000000       0.00000079       0.00000047       0.00000199       0.00000251       0.00000028
H        1.40307778       4.05033595      16.81106479        0       1.00000000       0.00000019      -0.00000086      -0.00000084       0.00000266       0.00000172      -0.00000189
H        4.20923286       4.05033535       7.77136666        0       1.00000000      -0.00000080       0.00000083       0.00000042       0.00000041       0.00000026       0.00000157
H        4.20923279       4.05033648      16.81106556        0       1.00000000      -0.00000082       0.00000050       0.00000072      -0.00000609       0.00000119       0.00000167
H        2.80615496       1.62013305       7.77136801        0       1.00000000       0.00000052      -0.00000098      -0.00000028      -0.00000249      -0.00000199      -0.00000026
20
Lattice="5.612310241546866 0.0 0.0 0.0 4.860403243099165 0.0 0.0 0.0 24.582432123328676" Properties=species:S:1:pos:R:3:tags:I:1:masses:R:1:momenta:R:3:forces:R:3 KEmax=25.851991011651638 iter=225147 volume=670.5618179858607 ns_energy=-13.621460814364257 last_walked_iter_clone=224671 energy=-13.621460814370174 stress="0.025729358256957817 -1.3148031692467189e-08 2.6436856420955583e-08 -1.3148031692467189e-08 0.025729353868826226 -4.493350895637226e-09 2.6436856420955583e-08 -4.493350895637226e-09 0.013195080197082265" pbc="T T F"
H        1.40307756       0.81006721      10.00000000        3       1.00000000       0.00000000       0.00000000       0.00000000       0.00000000       0.00000000       0.00000000
H        4.20923268       0.81006721      10.00000000        3       1.00000000       0.00000000       0.00000000       0.00000000       0.00000000       0.00000000       0.00000000
H        0.00000000       3.24026883      10.00000000        3       1.00000000       0.00000000       0.00000000       0.00000000       0.00000000       0.00000000       0.00000000
H        2.80615512       3.24026883      10.00000000        3       1.00000000       0.00000000       0.00000000       0.00000000       0.00000000       0.00000000       0.00000000
H        0.00000000       1.62013441      12.29121606        2       1.00000000       0.00000000       0.00000000       0.00000000       0.00000000       0.00000000       0.00000000
H        2.80615512       1.62013441      12.29121606        2       1.00000000       0.00000000       0.00000000       0.00000000       0.00000000       0.00000000       0.00000000
H        1.40307756       4.05033604      12.29121606        2       1.00000000       0.00000000       0.00000000       0.00000000       0.00000000       0.00000000       0.00000000
H        4.20923268       4.05033604      12.29121606        2       1.00000000       0.00000000       0.00000000       0.00000000       0.00000000       0.00000000       0.00000000
H        0.00000000       0.00000000      14.58243212        1       1.00000000       0.00000000       0.00000000       0.00000000       0.00000000       0.00000000       0.00000000
H        2.80615512       0.00000000      14.58243212        1       1.00000000       0.00000000       0.00000000       0.00000000       0.00000000       0.00000000       0.00000000
H        1.40307756       2.43020162      14.58243212        1       1.00000000       0.00000000       0.00000000       0.00000000       0.00000000       0.00000000       0.00000000
H        4.20923268       2.43020162      14.58243212        1       1.00000000       0.00000000       0.00000000       0.00000000       0.00000000       0.00000000       0.00000000
H        5.61231060       1.62013449      16.81106506        0       1.00000000       0.00000083      -0.00000001      -0.00000088      -0.00000177      -0.00000147      -0.00000008
H        1.40307682       4.05033557       7.77136710        0       1.00000000      -0.00000028       0.00000124      -0.00000180       0.00000048      -0.00000162       0.00000214
H        2.80615501       1.62013478      16.81106520        0       1.00000000      -0.00000088      -0.00000107      -0.00000015       0.00000267      -0.00000178       0.00000223
H        5.61230962       1.62013358       7.77136711        0       1.00000000       0.00000139      -0.00000146       0.00000015       0.00000199       0.00000251       0.00000028
H        1.40307873       4.05033533      16.81106581        0       1.00000000       0.00000173       0.00000129       0.00000209       0.00000266       0.00000172      -0.00000189
H        4.20923277       4.05033574       7.77136812        0       1.00000000       0.00000097       0.00000027      -0.00000049       0.00000041       0.00000026       0.00000157
H        4.20923381       4.05033664      16.81106461        0       1.00000000       0.00000044       0.00000021      -0.00000044      -0.00000609       0.00000119       0.00000167
H        2.80615478       1.62013399       7.77136765        0       1.00000000      -0.00000111       0.00000043      -0.00000026      -0.00000249      -0.00000199      -0.00000026
20
Lattice="5.612310241546866 0.0 0.0 0.0 4.860403243099165 0.0 0.0 0.0 24.582432123328676" Properties=species:S:1:pos:R:3:tags:I:1:masses:R:1:momenta:R:3:forces:R:3 KEmax=25.851991011651638 iter=225147 volume=670.5618179858607 ns_energy=-13.621460814363491 last_walked_iter_clone=224817 energy=-13.621460814370174 stress="0.025729358256957817 -1.3148031692467189e-08 2.6436856420955583e-08 -1.3148031692467189e-08 0.025729353868826226 -4.493350895637226e-09 2.6436856420955583e-08 -4.493350895637226e-09 0.013195080197082265" pbc="T T F"
H        1.40307756       0.81006721      10.00000000        3       1.00000000       0.00000000       0.00000000       0.00000000       0.00000000       0.00000000       0.00000000
H        4.20923268       0.81006721      10.00000000        3       1.00000000       0.00000000       0.00000000       0.00000000       0.00000000       0.00000000       0.00000000
H        0.00000000       3.24026883      10.00000000        3       1.00000000       0.00000000       0.00000000       0.00000000       0.00000000       0.00000000       0.00000000
H        2.80615512       3.24026883      10.00000000        3       1.00000000       0.00000000       0.00000000       0.00000000       0.00000000       0.00000000       0.00000000
H        0.00000000       1.62013441      12.29121606        2       1.00000000       0.00000000       0.00000000       0.00000000       0.00000000       0.00000000       0.00000000
H        2.80615512       1.62013441      12.29121606        2       1.00000000       0.00000000       0.00000000       0.00000000       0.00000000       0.00000000       0.00000000
H        1.40307756       4.05033604      12.29121606        2       1.00000000       0.00000000       0.00000000       0.00000000       0.00000000       0.00000000       0.00000000
H        4.20923268       4.05033604      12.29121606        2       1.00000000       0.00000000       0.00000000       0.00000000       0.00000000       0.00000000       0.00000000
H        0.00000000       0.00000000      14.58243212        1       1.00000000       0.00000000       0.00000000       0.00000000       0.00000000       0.00000000       0.00000000
H        2.80615512       0.00000000      14.58243212        1       1.00000000       0.00000000       0.00000000       0.00000000       0.00000000       0.00000000       0.00000000
H        1.40307756       2.43020162      14.58243212        1       1.00000000       0.00000000       0.00000000       0.00000000       0.00000000       0.00000000       0.00000000
H        4.20923268       2.43020162      14.58243212        1       1.00000000       0.00000000       0.00000000       0.00000000       0.00000000       0.00000000       0.00000000
H        5.61230900       1.62013455      16.81106461        0       1.00000000      -0.00000116       0.00000061       0.00000186      -0.00000177      -0.00000147      -0.00000008
H        1.40307809       4.05033636       7.77136719        0       1.00000000       0.00000216       0.00000040      -0.00000017       0.00000048      -0.00000162       0.00000214
H        2.80615416       1.62013393      16.81106486        0       1.00000000       0.00000026      -0.00000274      -0.00000169       0.00000267      -0.00000178       0.00000223
H        5.61230995       1.62013415       7.77136671        0       1.00000000       0.00000018      -0.00000129      -0.00000079       0.00000199       0.00000251       0.00000028
H        1.40307690       4.05033650      16.81106487        0       1.00000000      -0.00000054       0.00000117       0.00000003       0.00000266       0.00000172      -0.00000189
H        4.20923365       4.05033600       7.77136706        0       1.00000000       0.00000012      -0.00000080       0.00000004       0.00000041       0.00000026       0.00000157
H        4.20923126       4.05033549      16.81106544        0       1.00000000       0.00000119      -0.00000174      -0.00000047      -0.00000609       0.00000119       0.00000167
H        2.80615477       1.62013466       7.77136714        0       1.00000000       0.00000056      -0.00000057       0.00000012      -0.00000249      -0.00000199      -0.00000026
20
Lattice="5.612310241546866 0.0 0.0 0.0 4.860403243099165 0.0 0.0 0.0 24.582432123328676" Properties=species:S:1:pos:R:3:tags:I:1:masses:R:1:momenta:R:3:forces:R:3 KEmax=25.851991011651638 iter=225147 volume=670.5618179858607 ns_energy=-13.621460814363623 last_walked_iter_clone=225080 energy=-13.621460814370174 stress="0.025729358256957817 -1.3148031692467189e-08 2.6436856420955583e-08 -1.3148031692467189e-08 0.025729353868826226 -4.493350895637226e-09 2.6436856420955583e-08 -4.493350895637226e-09 0.013195080197082265" pbc="T T F"
H        1.40307756       0.81006721      10.00000000        3       1.00000000       0.00000000       0.00000000       0.00000000       0.00000000       0.00000000       0.00000000
H        4.20923268       0.81006721      10.00000000        3       1.00000000       0.00000000       0.00000000       0.00000000       0.00000000       0.00000000       0.00000000
H        0.00000000       3.24026883      10.00000000        3       1.00000000       0.00000000       0.00000000       0.00000000       0.00000000       0.00000000       0.00000000
H        2.80615512       3.24026883      10.00000000        3       1.00000000       0.00000000       0.00000000       0.00000000       0.00000000       0.00000000       0.00000000
H        0.00000000       1.62013441      12.29121606        2       1.00000000       0.00000000       0.00000000       0.00000000       0.00000000       0.00000000       0.00000000
H        2.80615512       1.62013441      12.29121606        2       1.00000000       0.00000000       0.00000000       0.00000000       0.00000000       0.00000000       0.00000000
H        1.40307756       4.05033604      12.29121606        2       1.00000000       0.00000000       0.00000000       0.00000000       0.00000000       0.00000000       0.00000000
H        4.20923268       4.05033604      12.29121606        2       1.00000000       0.00000000       0.00000000       0.00000000       0.00000000       0.00000000       0.00000000
H        0.00000000       0.00000000      14.58243212        1       1.00000000       0.00000000       0.00000000       0.00000000       0.00000000       0.00000000       0.00000000
H        2.80615512       0.00000000      14.58243212        1       1.00000000       0.00000000       0.00000000       0.00000000       0.00000000       0.00000000       0.00000000
H        1.40307756       2.43020162      14.58243212        1       1.00000000       0.00000000       0.00000000       0.00000000       0.00000000       0.00000000       0.00000000
H        4.20923268       2.43020162      14.58243212        1       1.00000000       0.00000000       0.00000000       0.00000000       0.00000000       0.00000000       0.00000000
H       -0.00000023       1.62013507      16.81106596        0       1.00000000      -0.00000065       0.00000048      -0.00000023      -0.00000177      -0.00000147      -0.00000008
H        1.40307770       4.05033736       7.77136652        0       1.00000000       0.00000003      -0.00000082       0.00000038       0.00000048      -0.00000162       0.00000214
H        2.80615535       1.62013507      16.81106657        0       1.00000000       0.00000072      -0.00000044       0.00000082       0.00000267      -0.00000178       0.00000223
H       -0.00000053       1.62013590       7.77136815        0       1.00000000       0.00000218       0.00000098      -0.00000019       0.00000199       0.00000251       0.00000028
H        1.40307780       4.05033717      16.81106461        0       1.00000000      -0.00000061       0.00000014      -0.00000066       0.00000266       0.00000172      -0.00000189
H        4.20923256       4.05033731       7.77136690        0       1.00000000      -0.00000091       0.00000152       0.00000207       0.00000041       0.00000026       0.00000157
H        4.20923228       4.05033726      16.81106489        0       1.00000000      -0.00000000       0.00000033       0.00000001      -0.00000609       0.00000119       0.00000167
H        2.80615503       1.62013503       7.77136678        0       1.00000000      -0.00000102       0.00000005      -0.00000065      -0.00000249      -0.00000199      -0.00000026
20
Lattice="5.612310241546866 0.0 0.0 0.0 4.860403243099165 0.0 0.0 0.0 24.582432123328676" Properties=species:S:1:pos:R:3:tags:I:1:masses:R:1:momenta:R:3:forces:R:3 KEmax=25.851991011651638 iter=225147 volume=670.5618179858607 ns_energy=-13.621460814363415 last_walked_iter_clone=224933 energy=-13.621460814370174 stress="0.025729358256957817 -1.3148031692467189e-08 2.6436856420955583e-08 -1.3148031692467189e-08 0.025729353868826226 -4.493350895637226e-09 2.6436856420955583e-08 -4.493350895637226e-09 0.013195080197082265" pbc="T T F"
H        1.40307756       0.81006721      10.00000000        3       1.00000000       0.00000000       0.00000000       0.00000000       0.00000000       0.00000000       0.00000000
H        4.20923268       0.81006721      10.00000000        3       1.00000000       0.00000000       0.00000000       0.00000000       0.00000000       0.00000000       0.00000000
H        0.00000000       3.24026883      10.00000000        3       1.00000000       0.00000000       0.00000000       0.00000000       0.00000000       0.00000000       0.00000000
H        2.80615512       3.24026883      10.00000000        3       1.00000000       0.00000000       0.00000000       0.00000000       0.00000000       0.00000000       0.00000000
H        0.00000000       1.62013441      12.29121606        2       1.00000000       0.00000000       0.00000000       0.00000000       0.00000000       0.00000000       0.00000000
H        2.80615512       1.62013441      12.29121606        2       1.00000000       0.00000000       0.00000000       0.00000000       0.00000000       0.00000000       0.00000000
H        1.40307756       4.05033604      12.29121606        2       1.00000000       0.00000000       0.00000000       0.00000000       0.00000000       0.00000000       0.00000000
H        4.20923268       4.05033604      12.29121606        2       1.00000000       0.00000000       0.00000000       0.00000000       0.00000000       0.00000000       0.00000000
H        0.00000000       0.00000000      14.58243212        1       1.00000000       0.00000000       0.00000000       0.00000000       0.00000000       0.00000000       0.00000000
H        2.80615512       0.00000000      14.58243212        1       1.00000000       0.00000000       0.00000000       0.00000000       0.00000000       0.00000000       0.00000000
H        1.40307756       2.43020162      14.58243212        1       1.00000000       0.00000000       0.00000000       0.00000000       0.00000000       0.00000000       0.00000000
H        4.20923268       2.43020162      14.58243212        1       1.00000000       0.00000000       0.00000000       0.00000000       0.00000000       0.00000000       0.00000000
H        5.61230996       1.62013430      16.81106388        0       1.00000000       0.00000078       0.00000084       0.00000025      -0.00000177      -0.00000147      -0.00000008
H        1.40307673       4.05033608       7.77136750        0       1.00000000       0.00000008      -0.00000078       0.00000103       0.00000048      -0.00000162       0.00000214
H        2.80615457       1.62013385      16.81106467        0       1.00000000      -0.00000045      -0.00000059       0.00000148       0.00000267      -0.00000178       0.00000223
H       -0.00000107       1.62013464       7.77136835        0       1.00000000      -0.00000148      -0.00000011      -0.00000023       0.00000199       0.00000251       0.00000028
H        1.40307882       4.05033556      16.81106505        0       1.00000000      -0.00000091      -0.00000166       0.00000012       0.00000266       0.00000172      -0.00000189
H        4.20923222       4.05033703       7.77136730        0       1.00000000       0.00000060       0.00000028       0.00000004       0.00000041       0.00000026       0.00000157
H        4.20923389       4.05033589      16.81106544        0       1.00000000      -0.00000058       0.00000098       0.00000001      -0.00000609       0.00000119       0.00000167
H        2.80615410       1.62013438       7.77136753        0       1.00000000       0.00000140       0.00000208       0.00000119      -0.00000249      -0.00000199      -0.00000026
20
Lattice="5.612310241546866 0.0 0.0 0.0 4.860403243099165 0.0 0.0 0.0 24.582432123328676" Properties=species:S:1:pos:R:3:tags:I:1:masses:R:1:momenta:R:3:forces:R:3 KEmax=25.851991011651638 iter=225147 volume=670.5618179858607 ns_energy=-13.621460814363632 last_walked_iter_clone=225027 energy=-13.621460814370174 stress="0.025729358256957817 -1.3148031692467189e-08 2.6436856420955583e-08 -1.3148031692467189e-08 0.025729353868826226 -4.493350895637226e-09 2.6436856420955583e-08 -4.493350895637226e-09 0.013195080197082265" pbc="T T F"
H        1.40307756       0.81006721      10.00000000        3       1.00000000       0.00000000       0.00000000       0.00000000       0.00000000       0.00000000       0.00000000