18
Lattice="5.612310241546866 0.0 0.0 0.0 4.860403243099165 0.0 0.0 0.0 44.58243212332868" Properties=species:S:1:pos:R:3:tags:I:1:masses:R:1:momenta:R:3:forces:R:3 KEmax=23.26679191048647 iter=119999 volume=1216.1236359717223 ns_energy=-11.647137732046549 last_walked_iter_clone=119300 energy=-11.647137732038127 stress="0.004540986035553115 -2.2925619111799345e-09 -2.2599537872455353e-09 -2.2925619111799345e-09 0.004537137562606425 1.7814617931529852e-08 -2.2599537872455353e-09 1.7814617931529852e-08 0.0023242361299682154" pbc="T T T"
H        1.40307756       0.81006721      20.00000000        3       1.00000000       0.00000000       0.00000000       0.00000000       0.00000000       0.00000000       0.00000000
H        4.20923268       0.81006721      20.00000000        3       1.00000000       0.00000000       0.00000000       0.00000000       0.00000000       0.00000000       0.00000000
H        0.00000000       3.24026883      20.00000000        3       1.00000000       0.00000000       0.00000000       0.00000000       0.00000000       0.00000000       0.00000000
H        2.80615512       3.24026883      20.00000000        3       1.00000000       0.00000000       0.00000000       0.00000000       0.00000000       0.00000000       0.00000000
H        0.00000000       1.62013441      22.29121606        2       1.00000000       0.00000000       0.00000000       0.00000000       0.00000000       0.00000000       0.00000000
H        2.80615512       1.62013441      22.29121606        2       1.00000000       0.00000000       0.00000000       0.00000000       0.00000000       0.00000000       0.00000000
H        1.40307756       4.05033604      22.29121606        2       1.00000000       0.00000000       0.00000000       0.00000000       0.00000000       0.00000000       0.00000000
H        4.20923268       4.05033604      22.29121606        2       1.00000000       0.00000000       0.00000000       0.00000000       0.00000000       0.00000000       0.00000000
H        0.00000000       0.00000000      24.58243212        1       1.00000000       0.00000000       0.00000000       0.00000000       0.00000000       0.00000000       0.00000000
H        2.80615512       0.00000000      24.58243212        1       1.00000000       0.00000000       0.00000000       0.00000000       0.00000000       0.00000000       0.00000000
H        1.40307756       2.43020162      24.58243212        1       1.00000000       0.00000000       0.00000000       0.00000000       0.00000000       0.00000000       0.00000000
H        4.20923268       2.43020162      24.58243212        1       1.00000000       0.00000000       0.00000000       0.00000000       0.00000000       0.00000000       0.00000000
H        5.60851745       1.60711542      17.79330514        0       1.00000000      -0.00000051      -0.00000085      -0.00000026       0.00000103       0.00000456      -0.00000007
H        1.40686873       4.03731727      17.79330502        0       1.00000000      -0.00000021      -0.00000083       0.00000087      -0.00000173      -0.00000679       0.00000396
H        1.40933429       0.79079713      15.56586792        0       1.00000000       0.00000071      -0.00000032      -0.00000020      -0.00000149       0.00000175      -0.00000384
H        2.81646563       1.63473920      17.76898294        0       1.00000000      -0.00000050      -0.00000067       0.00000030       0.00000158       0.00000631       0.00000189
H        5.60605335       3.22099796      15.56586774        0       1.00000000      -0.00000104       0.00000008       0.00000058      -0.00000011      -0.00000042       0.00000055
H        4.19892101       4.06494085      17.76898279        0       1.00000000       0.00000025      -0.00000079       0.00000126       0.00000107      -0.00000557      -0.00000190
18
Lattice="5.612310241546866 0.0 0.0 0.0 4.860403243099165 0.0 0.0 0.0 44.58243212332868" Properties=species:S:1:pos:R:3:tags:I:1:masses:R:1:momenta:R:3:forces:R:3 KEmax=23.26679191048647 iter=119999 volume=1216.1236359717223 ns_energy=-11.647137732046424 last_walked_iter_clone=119209 energy=-11.647137732038127 stress="0.004540986035553115 -2.2925619111799345e-09 -2.2599537872455353e-09 -2.2925619111799345e-09 0.004537137562606425 1.7814617931529852e-08 -2.2599537872455353e-09 1.7814617931529852e-08 0.0023242361299682154" pbc="T T T"
H        1.40307756       0.81006721      20.00000000        3       1.00000000       0.00000000       0.00000000       0.00000000       0.00000000       0.00000000       0.00000000
H        4.20923268       0.81006721      20.00000000        3       1.00000000       0.00000000       0.00000000       0.00000000       0.00000000       0.00000000       0.00000000
H        0.00000000       3.24026883      20.00000000        3       1.00000000       0.00000000       0.00000000       0.00000000       0.00000000       0.00000000       0.00000000
H        2.80615512       3.24026883      20.00000000        3       1.00000000       0.00000000       0.00000000       0.00000000       0.00000000       0.00000000       0.00000000
H        0.00000000       1.62013441      22.29121606        2       1.00000000       0.00000000       0.00000000       0.00000000       0.00000000       0.00000000       0.00000000
H        2.80615512       1.62013441      22.29121606        2       1.00000000       0.00000000       0.00000000       0.00000000       0.00000000       0.00000000       0.00000000
H        1.40307756       4.05033604      22.29121606        2       1.00000000       0.00000000       0.00000000       0.00000000       0.00000000       0.00000000       0.00000000
H        4.20923268       4.05033604      22.29121606        2       1.00000000       0.00000000       0.00000000       0.00000000       0.00000000       0.00000000       0.00000000
H        0.00000000       0.00000000      24.58243212        1       1.00000000       0.00000000       0.00000000       0.00000000       0.00000000       0.00000000       0.00000000
H        2.80615512       0.00000000      24.58243212        1       1.00000000       0.00000000       0.00000000       0.00000000       0.00000000       0.00000000       0.00000000
H        1.40307756       2.43020162      24.58243212        1       1.00000000       0.00000000       0.00000000       0.00000000       0.00000000       0.00000000       0.00000000
H        4.20923268       2.43020162      24.58243212        1       1.00000000       0.00000000       0.00000000       0.00000000       0.00000000       0.00000000       0.00000000
H        5.60851797       1.60711525      17.79330543        0       1.00000000       0.00000000      -0.00000022       0.00000101       0.00000103       0.00000456      -0.00000007
H        1.40686937       4.03731688      17.79330510        0       1.00000000       0.00000040       0.00000085      -0.00000121      -0.00000173      -0.00000679       0.00000396
H        1.40933513       0.79079490      15.56586741        0       1.00000000      -0.00000032       0.00000052       0.00000079      -0.00000149       0.00000175      -0.00000384
H        2.81646583       1.63473867      17.76898281        0       1.00000000       0.00000046      -0.00000018      -0.00000127       0.00000158       0.00000631       0.00000189
H        5.60605341       3.22099551      15.56586733        0       1.00000000       0.00000073      -0.00000086      -0.00000164      -0.00000011      -0.00000042       0.00000055
H        4.19892184       4.06494001      17.76898258        0       1.00000000      -0.00000026      -0.00000024      -0.00000026       0.00000107      -0.00000557      -0.00000190
18
Lattice="5.612310241546866 0.0 0.0 0.0 4.860403243099165 0.0 0.0 0.0 44.58243212332868" Properties=species:S:1:pos:R:3:tags:I:1:masses:R:1:momenta:R:3:forces:R:3 KEmax=23.26679191048647 iter=119999 volume=1216.1236359717223 ns_energy=-11.64713773204656 last_walked_iter_clone=118183 energy=-11.647137732038127 stress="0.004540986035553115 -2.2925619111799345e-09 -2.2599537872455353e-09 -2.2925619111799345e-09 0.004537137562606425 1.7814617931529852e-08 -2.2599537872455353e-09 1.7814617931529852e-08 0.0023242361299682154" pbc="T T T"
H        1.40307756       0.81006721      20.00000000        3       1.00000000       0.00000000       0.00000000       0.00000000       0.00000000       0.00000000       0.00000000
H        4.20923268       0.81006721      20.00000000        3       1.00000000       0.00000000       0.00000000       0.00000000       0.00000000       0.00000000       0.00000000
H        0.00000000       3.24026883      20.00000000        3       1.00000000       0.00000000       0.00000000       0.00000000       0.00000000       0.00000000       0.00000000
H        2.80615512       3.24026883      20.00000000        3       1.00000000       0.00000000       0.00000000       0.00000000       0.00000000       0.00000000       0.00000000
H        0.00000000       1.62013441      22.29121606        2       1.00000000       0.00000000       0.00000000       0.00000000       0.00000000       0.00000000       0.00000000
H        2.80615512       1.62013441      22.29121606        2       1.00000000       0.00000000       0.00000000       0.00000000       0.00000000       0.00000000       0.00000000
H        1.40307756       4.05033604      22.29121606        2       1.00000000       0.00000000       0.00000000       0.00000000       0.00000000       0.00000000       0.00000000
H        4.20923268       4.05033604      22.29121606        2       1.00000000       0.00000000       0.00000000       0.00000000       0.00000000       0.00000000       0.00000000
H        0.00000000       0.00000000      24.58243212        1       1.00000000       0.00000000       0.00000000       0.00000000       0.00000000       0.00000000       0.00000000
H        2.80615512       0.00000000      24.58243212        1       1.00000000       0.00000000       0.00000000       0.00000000       0.00000000       0.00000000       0.00000000
H        1.40307756       2.43020162      24.58243212        1       1.00000000       0.00000000       0.00000000       0.00000000       0.00000000       0.00000000       0.00000000
H        4.20923268       2.43020162      24.58243212        1       1.00000000       0.00000000       0.00000000       0.00000000       0.00000000       0.00000000       0.00000000
H        5.60851857       1.60711513      17.79330562        0       1.00000000       0.00000089      -0.00000169      -0.00000050       0.00000103       0.00000456      -0.00000007
H        1.40686979       4.03731707      17.79330481        0       1.00000000       0.00000081       0.00000004      -0.00000101      -0.00000173      -0.00000679       0.00000396
H        1.40933384       0.79079535      15.56586718        0       1.00000000      -0.00000052       0.00000038       0.00000081      -0.00000149       0.00000175      -0.00000384
H        2.81646599       1.63473879      17.76898281        0       1.00000000      -0.00000057      -0.00000027      -0.00000032       0.00000158       0.00000631       0.00000189
H        5.60605218       3.22099680      15.56586815        0       1.00000000      -0.00000067       0.00000003       0.00000001      -0.00000011      -0.00000042       0.00000055
H        4.19892194       4.06493991      17.76898339        0       1.00000000      -0.00000034      -0.00000114      -0.00000009       0.00000107      -0.00000557      -0.00000190
18
Lattice="5.612310241546866 0.0 0.0 0.0 4.860403243099165 0.0 0.0 0.0 44.58243212332868" Properties=species:S:1:pos:R:3:tags:I:1:masses:R:1:momenta:R:3:forces:R:3 KEmax=23.26679191048647 iter=119999 volume=1216.1236359717223 ns_energy=-11.647137732046364 last_walked_iter_clone=118893 energy=-11.647137732038127 stress="0.004540986035553115 -2.2925619111799345e-09 -2.2599537872455353e-09 -2.2925619111799345e-09 0.004537137562606425 1.7814617931529852e-08 -2.2599537872455353e-09 1.7814617931529852e-08 0.0023242361299682154" pbc="T T T"
H        1.40307756       0.81006721      20.00000000        3       1.00000000       0.00000000       0.00000000       0.00000000       0.00000000       0.00000000       0.00000000
H        4.20923268       0.81006721      20.00000000        3       1.00000000       0.00000000       0.00000000       0.00000000       0.00000000       0.00000000       0.00000000
H        0.00000000       3.24026883      20.00000000        3       1.00000000       0.00000000       0.00000000       0.00000000       0.00000000       0.00000000       0.00000000
H        2.80615512       3.24026883      20.00000000        3       1.00000000       0.00000000       0.00000000       0.00000000       0.00000000       0.00000000       0.00000000
H        0.00000000       1.62013441      22.29121606        2       1.00000000       0.00000000       0.00000000       0.00000000       0.00000000       0.00000000       0.00000000
H        2.80615512       1.62013441      22.29121606        2       1.00000000       0.00000000       0.00000000       0.00000000       0.00000000       0.00000000       0.00000000
H        1.40307756       4.05033604      22.29121606        2       1.00000000       0.00000000       0.00000000       0.00000000       0.00000000       0.00000000       0.00000000
H        4.20923268       4.05033604      22.29121606        2       1.00000000       0.00000000       0.00000000       0.00000000       0.00000000       0.00000000       0.00000000
H        0.00000000       0.00000000      24.58243212        1       1.00000000       0.00000000       0.00000000       0.00000000       0.00000000       0.00000000       0.00000000
H        2.80615512       0.00000000      24.58243212        1       1.00000000       0.00000000       0.00000000       0.00000000       0.00000000       0.00000000       0.00000000
H        1.40307756       2.43020162      24.58243212        1       1.00000000       0.00000000       0.00000000       0.00000000       0.00000000       0.00000000       0.00000000
H        4.20923268       2.43020162      24.58243212        1       1.00000000       0.00000000       0.00000000       0.00000000       0.00000000       0.00000000       0.00000000
H        5.60851806       1.60711591      17.79330565        0       1.00000000      -0.00000118      -0.00000083       0.00000032       0.00000103       0.00000456      -0.00000007
H        1.40686972       4.03731725      17.79330514        0       1.00000000      -0.00000126      -0.00000093       0.00000028      -0.00000173      -0.00000679       0.00000396
H        1.40933413       0.79079671      15.56586796        0       1.00000000       0.00000087       0.00000088      -0.00000046      -0.00000149       0.00000175      -0.00000384
H        2.81646656       1.63473918      17.76898328        0       1.00000000       0.00000083      -0.00000062      -0.00000036       0.00000158       0.00000631       0.00000189
H        5.60605283       3.22099778      15.56586762        0       1.00000000       0.00000077      -0.00000062       0.00000083      -0.00000011      -0.00000042       0.00000055
H        4.19892155       4.06494039      17.76898306        0       1.00000000      -0.00000027       0.00000000       0.00000030       0.00000107      -0.00000557      -0.00000190
18
Lattice="5.612310241546866 0.0 0.0 0.0 4.860403243099165 0.0 0.0 0.0 44.58243212332868" Properties=species:S:1:pos:R:3:tags:I:1:masses:R:1:momenta:R:3:forces:R:3 KEmax=23.26679191048647 iter=119999 volume=1216.1236359717223 ns_energy=-11.64713773204643 last_walked_iter_clone=119204 energy=-11.647137732038127 stress="0.004540986035553115 -2.2925619111799345e-09 -2.2599537872455353e-09 -2.2925619111799345e-09 0.004537137562606425 1.7814617931529852e-08 -2.2599537872455353e-09 1.7814617931529852e-08 0.0023242361299682154" pbc="T T T"
H        1.40307756       0.81006721      20.00000000        3       1.00000000       0.00000000       0.00000000       0.00000000       0.00000000       0.00000000       0.00000000
H        4.20923268       0.81006721      20.00000000        3       1.00000000       0.00000000       0.00000000       0.00000000       0.00000000       0.00000000       0.00000000
H        0.00000000       3.24026883      20.00000000        3       1.00000000       0.00000000       0.00000000       0.00000000       0.00000000       0.00000000       0.00000000
H        2.80615512       3.24026883      20.00000000        3       1.00000000       0.00000000       0.00000000       0.00000000       0.00000000       0.00000000       0.00000000
H        0.00000000       1.62013441      22.29121606        2       1.00000000       0.00000000       0.00000000       0.00000000       0.00000000       0.00000000       0.00000000
H        2.80615512       1.62013441      22.29121606        2       1.00000000       0.00000000       0.00000000       0.00000000       0.00000000       0.00000000       0.00000000
H        1.40307756       4.05033604      22.29121606        2       1.00000000       0.00000000       0.00000000       0.00000000       0.00000000       0.00000000       0.00000000
H        4.20923268       4.05033604      22.29121606        2       1.00000000       0.00000000       0.00000000       0.00000000       0.00000000       0.00000000       0.00000000
H        0.00000000       0.00000000      24.58243212        1       1.00000000       0.00000000       0.00000000       0.00000000       0.00000000       0.00000000       0.00000000
H        2.80615512       0.00000000      24.58243212        1       1.00000000       0.00000000       0.00000000       0.00000000       0.00000000       0.00000000       0.00000000
H        1.40307756       2.43020162      24.58243212        1       1.00000000       0.00000000       0.00000000       0.00000000       0.00000000       0.00000000       0.00000000
H        4.20923268       2.43020162      24.58243212        1       1.00000000       0.00000000       0.00000000       0.00000000       0.00000000       0.00000000       0.00000000
H        5.60851835       1.60711571      17.79330488        0       1.00000000      -0.00000010       0.00000080      -0.00000027       0.00000103       0.00000456      -0.00000007
H        1.40686992       4.03731774      17.79330489        0       1.00000000       0.00000036      -0.00000048       0.00000071      -0.00000173      -0.00000679       0.00000396
H        1.40933551       0.79079653      15.56586784        0       1.00000000      -0.00000092       0.00000054       0.00000121      -0.00000149       0.00000175      -0.00000384
H        2.81646679       1.63473913      17.76898275        0       1.00000000       0.00000111      -0.00000009      -0.00000066       0.00000158       0.00000631       0.00000189
H        5.60605342       3.22099766      15.56586753        0       1.00000000       0.00000119      -0.00000138       0.00000039      -0.00000011      -0.00000042       0.00000055
H        4.19892218       4.06494060      17.76898320        0       1.00000000      -0.00000028      -0.00000031       0.00000078       0.00000107      -0.00000557      -0.00000190
18
Lattice="5.612310241546866 0.0 0.0 0.0 4.860403243099165 0.0 0.0 0.0 44.58243212332868" Properties=species:S:1:pos:R:3:tags:I:1:masses:R:1:momenta:R:3:forces:R:3 KEmax=23.26679191048647 iter=119999 volume=1216.1236359717223 ns_energy=-11.647137732046465 last_walked_iter_clone=119238 energy=-11.647137732038127 stress="0.004540986035553115 -2.2925619111799345e-09 -2.2599537872455353e-09 -2.2925619111799345e-09 0.004537137562606425 1.7814617931529852e-08 -2.2599537872455353e-09 1.7814617931529852e-08 0.0023242361299682154" pbc="T T T"
H        1.40307756       0.81006721      20.00000000        3       1.00000000       0.00000000       0.00000000       0.00000000       0.00000000       0.00000000       0.00000000
H        4.20923268       0.81006721      20.00000000        3       1.00000000       0.00000000       0.00000000       0.00000000       0.00000000       0.00000000       0.00000000
H        0.00000000       3.24026883      20.00000000        3       1.00000000       0.00000000       0.00000000       0.00000000       0.00000000       0.00000000       0.00000000
H        2.80615512       3.24026883      20.00000000        3       1.00000000       0.00000000       0.00000000       0.00000000       0.00000000       0.00000000       0.00000000
H        0.00000000       1.62013441      22.29121606        2       1.00000000       0.00000000       0.00000000       0.00000000       0.00000000       0.00000000       0.00000000
H        2.80615512       1.62013441      22.29121606        2       1.00000000       0.00000000       0.00000000       0.00000000       0.00000000       0.00000000       0.00000000
H        1.40307756       4.05033604      22.29121606        2       1.00000000       0.00000000       0.00000000       0.00000000       0.00000000       0.00000000       0.00000000
H        4.20923268       4.05033604      22.29121606        2       1.00000000       0.00000000       0.00000000       0.00000000       0.00000000       0.00000000       0.00000000
H        0.00000000       0.00000000      24.58243212        1       1.00000000       0.00000000       0.00000000       0.00000000       0.00000000       0.00000000       0.00000000
H        2.80615512       0.00000000      24.58243212        1       1.00000000       0.00000000       0.00000000       0.00000000       0.00000000       0.00000000       0.00000000
H        1.40307756       2.43020162      24.58243212        1       1.00000000       0.00000000       0.00000000       0.00000000       0.00000000       0.00000000       0.00000000
H        4.20923268       2.43020162      24.58243212        1       1.00000000       0.00000000       0.00000000       0.00000000       0.00000000       0.00000000       0.00000000
H        5.60851839       1.60711601      17.79330513        0       1.00000000       0.00000063      -0.00000015      -0.00000016       0.00000103       0.00000456      -0.00000007
H        1.40687070       4.03731759      17.79330513        0       1.00000000       0.00000030      -0.00000008      -0.00000039      -0.00000173      -0.00000679       0.00000396
H        1.40933572       0.79079608      15.56586743        0       1.00000000       0.00000054      -0.00000156       0.00000090      -0.00000149       0.00000175      -0.00000384
H        2.81646693       1.63473892      17.76898300        0       1.00000000       0.00000084      -0.00000074       0.00000009       0.00000158       0.00000631       0.00000189
H        5.60605302       3.22099753      15.56586773        0       1.00000000       0.00000006      -0.00000034       0.00000011      -0.00000011      -0.00000042       0.00000055
H        4.19892211       4.06494081      17.76898232        0       1.00000000      -0.00000100      -0.00000152       0.00000029       0.00000107      -0.00000557      -0.00000190
18
Lattice="5.612310241546866 0.0 0.0 0.0 4.860403243099165 0.0 0.0 0.0 44.58243212332868" Properties=species:S:1:pos:R:3:tags:I:1:masses:R:1:momenta:R:3:forces:R:3 KEmax=23.26679191048647 iter=119999 volume=1216.1236359717223 ns_energy=-11.647137732046387 last_walked_iter_clone=117309 energy=-11.647137732038127 stress="0.004540986035553115 -2.2925619111799345e-09 -2.2599537872455353e-09 -2.2925619111799345e-09 0.004537137562606425 1.7814617931529852e-08 -2.2599537872455353e-09 1.7814617931529852e-08 0.0023242361299682154" pbc="T T T"
H        1.40307756       0.81006721      20.00000000        3       1.00000000       0.00000000       0.00000000       0.00000000       0.00000000       0.00000000       0.00000000
H        4.20923268       0.81006721      20.00000000        3       1.00000000       0.00000000       0.00000000       0.00000000       0.00000000       0.00000000       0.00000000
H        0.00000000       3.24026883      20.00000000        3       1.00000000       0.00000000       0.00000000       0.00000000       0.00000000       0.00000000       0.00000000
H        2.80615512       3.24026883      20.00000000        3       1.00000000       0.00000000       0.00000000       0.00000000       0.00000000       0.00000000       0.00000000
H        0.00000000       1.62013441      22.29121606        2       1.00000000       0.00000000       0.00000000       0.00000000       0.00000000       0.00000000       0.00000000
H        2.80615512       1.62013441      22.29121606        2       1.00000000       0.00000000       0.00000000       0.00000000       0.00000000       0.00000000       0.00000000
H        1.40307756       4.05033604      22.29121606        2       1.00000000       0.00000000       0.00000000       0.00000000       0.00000000       0.00000000       0.00000000
H        4.20923268       4.05033604      22.29121606        2       1.00000000       0.00000000       0.00000000       0.00000000       0.00000000       0.00000000       0.00000000
H        0.00000000       0.00000000      24.58243212        1       1.00000000       0.00000000       0.00000000       0.00000000       0.00000000       0.00000000       0.00000000
H        2.80615512       0.00000000      24.58243212        1       1.00000000       0.00000000       0.00000000       0.00000000       0.00000000       0.00000000       0.00000000
H        1.40307756       2.43020162      24.58243212        1       1.00000000       0.00000000       0.00000000       0.00000000       0.00000000       0.00000000       0.00000000
H        4.20923268       2.43020162      24.58243212        1       1.00000000       0.00000000       0.00000000       0.00000000       0.00000000       0.00000000       0.00000000
H        5.60851856       1.60711523      17.79330559        0       1.00000000       0.00000032      -0.00000025      -0.00000092       0.00000103       0.00000456      -0.00000007
H        1.40686993       4.03731720      17.79330464        0       1.00000000      -0.00000090      -0.00000048      -0.00000064      -0.00000173      -0.00000679       0.00000396
H        1.40933386       0.79079565      15.56586713        0       1.00000000      -0.00000044       0.00000051      -0.00000116      -0.00000149       0.00000175      -0.00000384
H        2.81646606       1.63473861      17.76898265        0       1.00000000       0.00000017      -0.00000081      -0.00000003       0.00000158       0.00000631       0.00000189
H        5.60605185       3.22099692      15.56586820        0       1.00000000       0.00000103       0.00000072       0.00000006      -0.00000011      -0.00000042       0.00000055
H        4.19892189       4.06494008      17.76898342        0       1.00000000       0.00000114       0.00000118       0.00000078       0.00000107      -0.00000557      -0.00000190
18
Lattice="5.612310241546866 0.0 0.0 0.0 4.860403243099165 0.0 0.0 0.0 44.58243212332868" Properties=species:S:1:pos:R:3:tags:I:1:masses:R:1:momenta:R:3:forces:R:3 KEmax=23.26679191048647 iter=119999 volume=1216.1236359717223 ns_energy=-11.647137732046351 last_walked_iter_clone=117862 energy=-11.647137732038127 stress="0.004540986035553115 -2.2925619111799345e-09 -2.2599537872455353e-09 -2.2925619111799345e-09 0.004537137562606425 1.7814617931529852e-08 -2.2599537872455353e-09 1.7814617931529852e-08 0.0023242361299682154" pbc="T T T"
H        1.40307756       0.81006721      20.00000000        3       1.00000000       0.00000000       0.00000000       0.00000000       0.00000000       0.00000000       0.00000000
H        4.20923268       0.81006721      20.00000000        3       1.00000000       0.00000000       0.00000000       0.00000000       0.00000000       0.00000000       0.00000000
H        0.00000000       3.24026883      20.00000000        3       1.00000000       0.00000000       0.00000000       0.00000000       0.00000000       0.00000000       0.00000000
H        2.80615512       3.24026883      20.00000000        3       1.00000000       0.00000000       0.00000000       0.00000000       0.00000000       0.00000000       0.00000000
H        0.00000000       1.62013441      22.29121606        2       1.00000000       0.00000000       0.00000000       0.00000000       0.00000000       0.00000000       0.00000000
H        2.80615512       1.62013441      22.29121606        2       1.00000000       0.00000000       0.00000000       0.00000000       0.00000000       0.00000000       0.00000000
H        1.40307756       4.05033604      22.29121606        2       1.00000000       0.00000000       0.00000000       0.00000000       0.00000000       0.00000000       0.00000000
H        4.20923268       4.05033604      22.29121606        2       1.00000000       0.00000000       0.00000000       0.00000000       0.00000000       0.00000000       0.00000000
H        0.00000000       0.00000000      24.58243212        1       1.00000000       0.00000000       0.00000000       0.00000000       0.00000000       0.00000000       0.00000000
H        2.80615512       0.00000000      24.58243212        1       1.00000000       0.00000000       0.00000000       0.00000000       0.00000000       0.00000000       0.00000000
H        1.40307756       2.43020162      24.58243212        1       1.00000000       0.00000000       0.00000000       0.00000000       0.00000000       0.00000000       0.00000000
H        4.20923268       2.43020162      24.58243212        1       1.00000000       0.00000000       0.00000000       0.00000000       0.00000000       0.00000000       0.00000000
H        5.60851754       1.60711597      17.79330522        0       1.00000000       0.00000019      -0.00000019       0.00000046       0.00000103       0.00000456      -0.00000007
H        1.40686937       4.03731705      17.79330429        0       1.00000000      -0.00000042       0.00000026      -0.00000035      -0.00000173      -0.00000679       0.00000396
H        1.40933448       0.79079570      15.56586803        0       1.00000000       0.00000098       0.00000107       0.00000092      -0.00000149       0.00000175      -0.00000384