18
Lattice="5.612310241546866 0.0 0.0 0.0 4.860403243099165 0.0 0.0 0.0 44.58243212332868" Properties=species:S:1:pos:R:3:tags:I:1:masses:R:1:momenta:R:3 KEmax=23.26679191048647 iter=99 volume=1216.1236359717223 ns_energy=14.194471014748208 last_walked_iter_clone=60 ns_P=0.0 config_n_global=99 ns_KE=21.84864067857877 pbc="T T T"
H        1.40307756       0.81006721      20.00000000        3       1.00000000       0.00000000       0.00000000       0.00000000
H        4.20923268       0.81006721      20.00000000        3       1.00000000       0.00000000       0.00000000       0.00000000
H        0.00000000       3.24026883      20.00000000        3       1.00000000       0.00000000       0.00000000       0.00000000
H        2.80615512       3.24026883      20.00000000        3       1.00000000       0.00000000       0.00000000       0.00000000
H        0.00000000       1.62013441      22.29121606        2       1.00000000       0.00000000       0.00000000       0.00000000
H        2.80615512       1.62013441      22.29121606        2       1.00000000       0.00000000       0.00000000       0.00000000
H        1.40307756       4.05033604      22.29121606        2       1.00000000       0.00000000       0.00000000       0.00000000
H        4.20923268       4.05033604      22.29121606        2       1.00000000       0.00000000       0.00000000       0.00000000
H        0.00000000       0.00000000      24.58243212        1       1.00000000       0.00000000       0.00000000       0.00000000
H        2.80615512       0.00000000      24.58243212        1       1.00000000       0.00000000       0.00000000       0.00000000
H        1.40307756       2.43020162      24.58243212        1       1.00000000       0.00000000       0.00000000       0.00000000
H        4.20923268       2.43020162      24.58243212        1       1.00000000       0.00000000       0.00000000       0.00000000
H        2.62928740       4.93750159      32.23097950        0       1.00000000       0.38773184       1.94281835      -0.73826328
H        5.15148057       2.66713668      38.01945766        0       1.00000000       0.23852119       2.38087623      -1.63448683
H        1.72492697       0.46274029      41.15553300        0       1.00000000       2.56260096       1.81769087       0.17594013
H        5.38847373       1.66065396      32.04655446        0       1.00000000       1.79265764       0.63389844       3.04557895
H        5.46322548       3.87706553      40.71191055        0       1.00000000       0.24878596       0.57084992      -1.75113781
H        5.77282987       4.68576714       9.01616186        0       1.00000000       1.50280051       1.44891629       0.47483086
18
Lattice="5.612310241546866 0.0 0.0 0.0 4.860403243099165 0.0 0.0 0.0 44.58243212332868" Properties=species:S:1:pos:R:3:tags:I:1:masses:R:1:momenta:R:3 KEmax=23.26679191048647 iter=199 volume=1216.1236359717223 ns_energy=10.356831874379457 last_walked_iter_clone=168 ns_P=0.0 config_n_global=199 ns_KE=18.02746615587941 pbc="T T T"
H        1.40307756       0.81006721      20.00000000        3       1.00000000       0.00000000       0.00000000       0.00000000
H        4.20923268       0.81006721      20.00000000        3       1.00000000       0.00000000       0.00000000       0.00000000
H        0.00000000       3.24026883      20.00000000        3       1.00000000       0.00000000       0.00000000       0.00000000
H        2.80615512       3.24026883      20.00000000        3       1.00000000       0.00000000       0.00000000       0.00000000
H        0.00000000       1.62013441      22.29121606        2       1.00000000       0.00000000       0.00000000       0.00000000
H        2.80615512       1.62013441      22.29121606        2       1.00000000       0.00000000       0.00000000       0.00000000
H        1.40307756       4.05033604      22.29121606        2       1.00000000       0.00000000       0.00000000       0.00000000
H        4.20923268       4.05033604      22.29121606        2       1.00000000       0.00000000       0.00000000       0.00000000
H        0.00000000       0.00000000      24.58243212        1       1.00000000       0.00000000       0.00000000       0.00000000
H        2.80615512       0.00000000      24.58243212        1       1.00000000       0.00000000       0.00000000       0.00000000
H        1.40307756       2.43020162      24.58243212        1       1.00000000       0.00000000       0.00000000       0.00000000
H        4.20923268       2.43020162      24.58243212        1       1.00000000       0.00000000       0.00000000       0.00000000
H        4.58822074       3.24379702      40.77448095        0       1.00000000       0.31410378      -1.96568385       1.84911261
H        2.62702549       0.78784719       7.18555894        0       1.00000000       1.44103323      -0.45525187       0.04719041
H        4.49155665       0.53403511      36.89970969        0       1.00000000       0.73695229      -0.45521169       1.59645142
H        3.47858656       3.43266729      29.61196752        0       1.00000000      -1.10009405       1.21573681       0.89579322
H        1.45686612       3.43849034      32.85853845        0       1.00000000       1.79677591       0.12806346      -2.80532878
H        3.73406897       1.22653640      42.25102941        0       1.00000000       1.55897425       2.16980685       1.15944160
18
Lattice="5.612310241546866 0.0 0.0 0.0 4.860403243099165 0.0 0.0 0.0 44.58243212332868" Properties=species:S:1:pos:R:3:tags:I:1:masses:R:1:momenta:R:3 KEmax=23.26679191048647 iter=299 volume=1216.1236359717223 ns_energy=7.485127296897859 last_walked_iter_clone=208 ns_P=0.0 config_n_global=299 ns_KE=15.095330367962669 pbc="T T T"
H        1.40307756       0.81006721      20.00000000        3       1.00000000       0.00000000       0.00000000       0.00000000
H        4.20923268       0.81006721      20.00000000        3       1.00000000       0.00000000       0.00000000       0.00000000
H        0.00000000       3.24026883      20.00000000        3       1.00000000       0.00000000       0.00000000       0.00000000
H        2.80615512       3.24026883      20.00000000        3       1.00000000       0.00000000       0.00000000       0.00000000
H        0.00000000       1.62013441      22.29121606        2       1.00000000       0.00000000       0.00000000       0.00000000
H        2.80615512       1.62013441      22.29121606        2       1.00000000       0.00000000       0.00000000       0.00000000
H        1.40307756       4.05033604      22.29121606        2       1.00000000       0.00000000       0.00000000       0.00000000
H        4.20923268       4.05033604      22.29121606        2       1.00000000       0.00000000       0.00000000       0.00000000
H        0.00000000       0.00000000      24.58243212        1       1.00000000       0.00000000       0.00000000       0.00000000
H        2.80615512       0.00000000      24.58243212        1       1.00000000       0.00000000       0.00000000       0.00000000
H        1.40307756       2.43020162      24.58243212        1       1.00000000       0.00000000       0.00000000       0.00000000
H        4.20923268       2.43020162      24.58243212        1       1.00000000       0.00000000       0.00000000       0.00000000
H        4.44878617       2.73840636       6.55806415        0       1.00000000       0.21760767       1.57975281      -1.25692108
H        4.92697049       1.47443155      13.93879852        0       1.00000000       1.10943691      -0.60738433      -2.43306551
H        1.78643123       0.63655412      15.93818103        0       1.00000000       0.25355156       0.02383536       1.98636226
H        5.40859623       2.51106908      34.29060019        0       1.00000000       2.07553036      -1.33848831      -1.43311618
H        2.60233276      -0.45765936      40.23622444        0       1.00000000      -1.00072534      -2.08755886      -0.76978803
H        3.68942935       1.43349718       0.30623563        0       1.00000000      -0.05412758       0.33767682       0.56186412
18
Lattice="5.612310241546866 0.0 0.0 0.0 4.860403243099165 0.0 0.0 0.0 44.58243212332868" Properties=species:S:1:pos:R:3:tags:I:1:masses:R:1:momenta:R:3 KEmax=23.26679191048647 iter=399 volume=1216.1236359717223 ns_energy=5.170075590527918 last_walked_iter_clone=362 ns_P=0.0 config_n_global=399 ns_KE=13.161948859053375 pbc="T T T"
H        1.40307756       0.81006721      20.00000000        3       1.00000000       0.00000000       0.00000000       0.00000000
H        4.20923268       0.81006721      20.00000000        3       1.00000000       0.00000000       0.00000000       0.00000000
H        0.00000000       3.24026883      20.00000000        3       1.00000000       0.00000000       0.00000000       0.00000000
H        2.80615512       3.24026883      20.00000000        3       1.00000000       0.00000000       0.00000000       0.00000000
H        0.00000000       1.62013441      22.29121606        2       1.00000000       0.00000000       0.00000000       0.00000000
H        2.80615512       1.62013441      22.29121606        2       1.00000000       0.00000000       0.00000000       0.00000000
H        1.40307756       4.05033604      22.29121606        2       1.00000000       0.00000000       0.00000000       0.00000000
H        4.20923268       4.05033604      22.29121606        2       1.00000000       0.00000000       0.00000000       0.00000000
H        0.00000000       0.00000000      24.58243212        1       1.00000000       0.00000000       0.00000000       0.00000000
H        2.80615512       0.00000000      24.58243212        1       1.00000000       0.00000000       0.00000000       0.00000000
H        1.40307756       2.43020162      24.58243212        1       1.00000000       0.00000000       0.00000000       0.00000000
H        4.20923268       2.43020162      24.58243212        1       1.00000000       0.00000000       0.00000000       0.00000000
H        3.79381585       0.00954098       0.23391206        0       1.00000000       1.41589356      -0.14996417      -1.14641702
H        2.79721390       3.59370586      37.90205470        0       1.00000000       0.45386160       0.63635148       0.05981654
H        4.03939039       1.87411909      12.92620075        0       1.00000000      -2.25750150       0.69686570      -0.11025327
H        5.04832782       2.01457458      27.46763095        0       1.00000000       1.12457855       0.93446107      -2.37931674
H        4.16860626       4.57648767      16.89902224        0       1.00000000       0.94021490       1.93324645      -0.12845371
H        1.87696284       0.83228393      40.93308400        0       1.00000000       1.52423816      -0.29939314      -1.38703016
18
Lattice="5.612310241546866 0.0 0.0 0.0 4.860403243099165 0.0 0.0 0.0 44.58243212332868" Properties=species:S:1:pos:R:3:tags:I:1:masses:R:1:momenta:R:3 KEmax=23.26679191048647 iter=499 volume=1216.1236359717223 ns_energy=3.4095467043271777 last_walked_iter_clone=479 ns_P=0.0 config_n_global=499 ns_KE=9.439921123763277 pbc="T T T"
H        1.40307756       0.81006721      20.00000000        3       1.00000000       0.00000000       0.00000000       0.00000000
H        4.20923268       0.81006721      20.00000000        3       1.00000000       0.00000000       0.00000000       0.00000000
H        0.00000000       3.24026883      20.00000000        3       1.00000000       0.00000000       0.00000000       0.00000000
H        2.80615512       3.24026883      20.00000000        3       1.00000000       0.00000000       0.00000000       0.00000000
H        0.00000000       1.62013441      22.29121606        2       1.00000000       0.00000000       0.00000000       0.00000000
H        2.80615512       1.62013441      22.29121606        2       1.00000000       0.00000000       0.00000000       0.00000000
H        1.40307756       4.05033604      22.29121606        2       1.00000000       0.00000000       0.00000000       0.00000000
H        4.20923268       4.05033604      22.29121606        2       1.00000000       0.00000000       0.00000000       0.00000000
H        0.00000000       0.00000000      24.58243212        1       1.00000000       0.00000000       0.00000000       0.00000000
H        2.80615512       0.00000000      24.58243212        1       1.00000000       0.00000000       0.00000000       0.00000000
H        1.40307756       2.43020162      24.58243212        1       1.00000000       0.00000000       0.00000000       0.00000000
H        4.20923268       2.43020162      24.58243212        1       1.00000000       0.00000000       0.00000000       0.00000000
H        0.24875908       4.38008688       0.57955326        0       1.00000000       0.07405793      -1.55165051      -0.06133749
H        2.84268176       3.89156996      14.45137977        0       1.00000000       2.00862208       1.33898117      -0.52507249
H        3.52496412      -0.09171573      39.09760128        0       1.00000000       0.36107617       0.53759480      -0.32304228
H        2.94029917       4.69044255      42.63159727        0       1.00000000      -1.57841351      -0.84295195       1.09249806
H        4.49414681       3.44659177      11.49907956        0       1.00000000       1.49111127      -0.43332388      -1.21567463
H        2.10188005       2.46067435      15.84454928        0       1.00000000      -0.56465613      -0.76560666      -0.80408623
18
Lattice="5.612310241546866 0.0 0.0 0.0 4.860403243099165 0.0 0.0 0.0 44.58243212332868" Properties=species:S:1:pos:R:3:tags:I:1:masses:R:1:momenta:R:3 KEmax=23.26679191048647 iter=599 volume=1216.1236359717223 ns_energy=2.1987930784939937 last_walked_iter_clone=546 ns_P=0.0 config_n_global=599 ns_KE=10.183100002810107 pbc="T T T"
H        1.40307756       0.81006721      20.00000000        3       1.00000000       0.00000000       0.00000000       0.00000000
H        4.20923268       0.81006721      20.00000000        3       1.00000000       0.00000000       0.00000000       0.00000000
H        0.00000000       3.24026883      20.00000000        3       1.00000000       0.00000000       0.00000000       0.00000000
H        2.80615512       3.24026883      20.00000000        3       1.00000000       0.00000000       0.00000000       0.00000000
H        0.00000000       1.62013441      22.29121606        2       1.00000000       0.00000000       0.00000000       0.00000000
H        2.80615512       1.62013441      22.29121606        2       1.00000000       0.00000000       0.00000000       0.00000000
H        1.40307756       4.05033604      22.29121606        2       1.00000000       0.00000000       0.00000000       0.00000000
H        4.20923268       4.05033604      22.29121606        2       1.00000000       0.00000000       0.00000000       0.00000000
H        0.00000000       0.00000000      24.58243212        1       1.00000000       0.00000000       0.00000000       0.00000000
H        2.80615512       0.00000000      24.58243212        1       1.00000000       0.00000000       0.00000000       0.00000000
H        1.40307756       2.43020162      24.58243212        1       1.00000000       0.00000000       0.00000000       0.00000000
H        4.20923268       2.43020162      24.58243212        1       1.00000000       0.00000000       0.00000000       0.00000000
H        4.41192674       3.90099921      10.51773947        0       1.00000000      -0.11706306       0.52030145      -0.15734185
H        5.21455471      -0.18232399      32.76403954        0       1.00000000       0.45141947      -1.05736652       1.17787532
H        1.66537864       4.02828576      17.18722307        0       1.00000000       0.18771884      -0.53117639      -0.52498178
H        1.66487255       2.86813993      11.46754380        0       1.00000000       1.01483355      -1.04782592       0.08847158
H        0.55866342       4.74195189      28.55519610        0       1.00000000       0.79816986       1.36696264      -1.49676611
H        1.21846652       0.58428198       5.08340191        0       1.00000000       2.33928641       1.04820702      -1.81720023
18
Lattice="5.612310241546866 0.0 0.0 0.0 4.860403243099165 0.0 0.0 0.0 44.58243212332868" Properties=species:S:1:pos:R:3:tags:I:1:masses:R:1:momenta:R:3 KEmax=23.26679191048647 iter=699 volume=1216.1236359717223 ns_energy=1.0984720416446025 last_walked_iter_clone=644 ns_P=0.0 config_n_global=699 ns_KE=8.75720771248263 pbc="T T T"
H        1.40307756       0.81006721      20.00000000        3       1.00000000       0.00000000       0.00000000       0.00000000
H        4.20923268       0.81006721      20.00000000        3       1.00000000       0.00000000       0.00000000       0.00000000
H        0.00000000       3.24026883      20.00000000        3       1.00000000       0.00000000       0.00000000       0.00000000
H        2.80615512       3.24026883      20.00000000        3       1.00000000       0.00000000       0.00000000       0.00000000
H        0.00000000       1.62013441      22.29121606        2       1.00000000       0.00000000       0.00000000       0.00000000
H        2.80615512       1.62013441      22.29121606        2       1.00000000       0.00000000       0.00000000       0.00000000
H        1.40307756       4.05033604      22.29121606        2       1.00000000       0.00000000       0.00000000       0.00000000
H        4.20923268       4.05033604      22.29121606        2       1.00000000       0.00000000       0.00000000       0.00000000
H        0.00000000       0.00000000      24.58243212        1       1.00000000       0.00000000       0.00000000       0.00000000
H        2.80615512       0.00000000      24.58243212        1       1.00000000       0.00000000       0.00000000       0.00000000
H        1.40307756       2.43020162      24.58243212        1       1.00000000       0.00000000       0.00000000       0.00000000
H        4.20923268       2.43020162      24.58243212        1       1.00000000       0.00000000       0.00000000       0.00000000
H        0.59996935       1.23781598      42.24136159        0       1.00000000       0.09830526      -1.66581339      -1.19593877
H        1.18942902       3.39806952      41.29942969        0       1.00000000      -0.53308384      -1.02315546      -0.00803064
H        1.85083548       3.59978099      36.51930020        0       1.00000000      -0.27889676      -0.61955522      -0.91071764
H        1.39044297       4.73041178      44.48329287        0       1.00000000      -0.45123361       0.24737648      -0.07145058
H        4.38660788       0.92934460       5.44093070        0       1.00000000       0.15034356       0.96025088       2.50457278
H        1.24747767       4.07362631       8.56285397        0       1.00000000      -0.87769292      -1.31997494       0.82295718
18
Lattice="5.612310241546866 0.0 0.0 0.0 4.860403243099165 0.0 0.0 0.0 44.58243212332868" Properties=species:S:1:pos:R:3:tags:I:1:masses:R:1:momenta:R:3 KEmax=23.26679191048647 iter=799 volume=1216.1236359717223 ns_energy=0.19187881021922296 last_walked_iter_clone=769 ns_P=0.0 config_n_global=799 ns_KE=7.919626300178397 pbc="T T T"
H        1.40307756       0.81006721      20.00000000        3       1.00000000       0.00000000       0.00000000       0.00000000
H        4.20923268       0.81006721      20.00000000        3       1.00000000       0.00000000       0.00000000       0.00000000
H        0.00000000       3.24026883      20.00000000        3       1.00000000       0.00000000       0.00000000       0.00000000
H        2.80615512       3.24026883      20.00000000        3       1.00000000       0.00000000       0.00000000       0.00000000
H        0.00000000       1.62013441      22.29121606        2       1.00000000       0.00000000       0.00000000       0.00000000
H        2.80615512       1.62013441      22.29121606        2       1.00000000       0.00000000       0.00000000       0.00000000
H        1.40307756       4.05033604      22.29121606        2       1.00000000       0.00000000       0.00000000       0.00000000
H        4.20923268       4.05033604      22.29121606        2       1.00000000       0.00000000       0.00000000       0.00000000
H        0.00000000       0.00000000      24.58243212        1       1.00000000       0.00000000       0.00000000       0.00000000
H        2.80615512       0.00000000      24.58243212        1       1.00000000       0.00000000       0.00000000       0.00000000
H        1.40307756       2.43020162      24.58243212        1       1.00000000       0.00000000       0.00000000       0.00000000
H        4.20923268       2.43020162      24.58243212        1       1.00000000       0.00000000       0.00000000       0.00000000
H       -0.12973841       3.77319827       1.91556358        0       1.00000000       1.26246341       1.75339039       0.07424230
H        4.97350201       2.38567754      29.23612027        0       1.00000000      -0.76727087      -0.17712825      -0.20972983
H        3.35850368       1.39887818       6.00951880        0       1.00000000       0.61751794      -0.32212929       0.73030177
H        2.93512220       0.75886979      29.15152394        0       1.00000000       0.89812453      -1.13441405      -0.16191412
H        3.35215130       3.86371479       9.90803246        0       1.00000000       0.14623324       1.99956759      -0.82832606
H        1.76330202       1.17689325      12.35047345        0       1.00000000      -0.12398272      -0.69786681       1.46803928
18
Lattice="5.612310241546866 0.0 0.0 0.0 4.860403243099165 0.0 0.0 0.0 44.58243212332868" Properties=species:S:1:pos:R:3:tags:I:1:masses:R:1:momenta:R:3 KEmax=23.26679191048647 iter=899 volume=1216.1236359717223 ns_energy=-0.5067831913950183 ns_P=0.0 config_n_global=899 ns_KE=5.7932941068943355 pbc="T T T"
H        1.40307756       0.81006721      20.00000000        3       1.00000000       0.00000000       0.00000000       0.00000000
H        4.20923268       0.81006721      20.00000000        3       1.00000000       0.00000000       0.00000000       0.00000000
H        0.00000000       3.24026883      20.00000000        3       1.00000000       0.00000000       0.00000000       0.00000000
H        2.80615512       3.24026883      20.00000000        3       1.00000000       0.00000000       0.00000000       0.00000000
H        0.00000000       1.62013441      22.29121606        2       1.00000000       0.00000000       0.00000000       0.00000000
H        2.80615512       1.62013441      22.29121606        2       1.00000000       0.00000000       0.00000000       0.00000000
H        1.40307756       4.05033604      22.29121606        2       1.00000000       0.00000000       0.00000000       0.00000000
H        4.20923268       4.05033604      22.29121606        2       1.00000000       0.00000000       0.00000000       0.00000000
H        0.00000000       0.00000000      24.58243212        1       1.00000000       0.00000000       0.00000000       0.00000000
H        2.80615512       0.00000000      24.58243212        1       1.00000000       0.00000000       0.00000000       0.00000000
H        1.40307756       2.43020162      24.58243212        1       1.00000000       0.00000000       0.00000000       0.00000000
H        4.20923268       2.43020162      24.58243212        1       1.00000000       0.00000000       0.00000000       0.00000000
H        2.68686368       1.33965229      10.50132998        0       1.00000000      -1.59566791       0.59960662       0.07893436
H        1.12538903       4.69224388      10.69189373        0       1.00000000      -0.44571680      -0.69571348      -0.71151443
H        0.13824805       4.65898568       5.33115254        0       1.00000000      -1.17919456      -0.08669438      -0.34832325
H        1.13757464       4.76716864      13.07379506        0       1.00000000      -0.82402649       1.20679945      -0.56195613
H        5.48762349       2.50614102      41.71367000        0       1.00000000       0.17886189       0.40299183       1.59790980
H        2.08046972       3.61158284      41.21262856        0       1.00000000      -0.29220323      -0.17148056      -0.80790954
18
Lattice="5.612310241546866 0.0 0.0 0.0 4.860403243099165 0.0 0.0 0.0 44.58243212332868" Properties=species:S:1:pos:R:3:tags:I:1:masses:R:1:momenta:R:3 KEmax=23.26679191048647 iter=999 volume=1216.1236359717223 ns_energy=-1.1119274213402726 last_walked_iter_clone=892 ns_P=0.0 config_n_global=999 ns_KE=6.63541540962089 pbc="T T T"
H        1.40307756       0.81006721      20.00000000        3       1.00000000       0.00000000       0.00000000       0.00000000
H        4.20923268       0.81006721      20.00000000        3       1.00000000       0.00000000       0.00000000       0.00000000
H        0.00000000       3.24026883      20.00000000        3       1.00000000       0.00000000       0.00000000       0.00000000
H        2.80615512       3.24026883      20.00000000        3       1.00000000       0.00000000       0.00000000       0.00000000
H        0.00000000       1.62013441      22.29121606        2       1.00000000       0.00000000       0.00000000       0.00000000
H        2.80615512       1.62013441      22.29121606        2       1.00000000       0.00000000       0.00000000       0.00000000
H        1.40307756       4.05033604      22.29121606        2       1.00000000       0.00000000       0.00000000       0.00000000
H        4.20923268       4.05033604      22.29121606        2       1.00000000       0.00000000       0.00000000       0.00000000
H        0.00000000       0.00000000      24.58243212        1       1.00000000       0.00000000       0.00000000       0.00000000
H        2.80615512       0.00000000      24.58243212        1       1.00000000       0.00000000       0.00000000       0.00000000
H        1.40307756       2.43020162      24.58243212        1       1.00000000       0.00000000       0.00000000       0.00000000
H        4.20923268       2.43020162      24.58243212        1       1.00000000       0.00000000       0.00000000       0.00000000
H        0.47708575       1.42154478      43.23022889        0       1.00000000       0.35606269      -0.17952258       0.70530758
H        5.19483769       2.20986306       6.00159218        0       1.00000000       0.04203039       0.60345692       0.36284797
H        5.81922840       4.78189029       1.62538322        0       1.00000000       2.28330157      -0.01908919       0.82750212
H        4.04616823       2.72844869      29.38516155        0       1.00000000      -1.79489161       0.47048881      -0.81582286
H        3.11282443       4.62833687      10.29811400        0       1.00000000       0.20367806      -0.50986309      -0.54472378
H        2.45012523       3.68038643       7.26143463        0       1.00000000      -0.89052181      -0.82127827       0.20959146
18
Lattice="5.612310241546866 0.0 0.0 0.0 4.860403243099165 0.0 0.0 0.0 44.58243212332868" Properties=species:S:1:pos:R:3:tags:I:1:masses:R:1:momenta:R:3 KEmax=23.26679191048647 iter=1099 volume=1216.1236359717223 ns_energy=-1.5528077676363514 last_walked_iter_clone=996 ns_P=0.0 config_n_global=1099 ns_KE=6.21406697969952 pbc="T T T"
H        1.40307756       0.81006721      20.00000000        3       1.00000000       0.00000000       0.00000000       0.00000000
H        4.20923268       0.81006721      20.00000000        3       1.00000000       0.00000000       0.00000000       0.00000000
H        0.00000000       3.24026883      20.00000000        3       1.00000000       0.00000000       0.00000000       0.00000000
H        2.80615512       3.24026883      20.00000000        3       1.00000000       0.00000000       0.00000000       0.00000000
H        0.00000000       1.62013441      22.29121606        2       1.00000000       0.00000000       0.00000000       0.00000000
H        2.80615512       1.62013441      22.29121606        2       1.00000000       0.00000000       0.00000000       0.00000000
H        1.40307756       4.05033604      22.29121606        2       1.00000000       0.00000000       0.00000000       0.00000000
H        4.20923268       4.05033604      22.29121606        2       1.00000000       0.00000000       0.00000000       0.00000000
H        0.00000000       0.00000000      24.58243212        1       1.00000000       0.00000000       0.00000000       0.00000000
H        2.80615512       0.00000000      24.58243212        1       1.00000000       0.00000000       0.00000000       0.00000000
H        1.40307756       2.43020162      24.58243212        1       1.00000000       0.00000000       0.00000000       0.00000000
H        4.20923268       2.43020162      24.58243212        1       1.00000000       0.00000000       0.00000000       0.00000000
H        0.24458251       0.91944973      12.76285969        0       1.00000000       0.01264353      -0.56017591       0.42560071
H        5.12998875       3.37480002       4.43701145        0       1.00000000       1.30329512      -0.46613943       0.95001031
H        3.89280634       0.24432950      28.49052221        0       1.00000000       0.00693485       1.16453340       0.01919641
H        5.09757932      -0.19050447      16.58859005        0       1.00000000      -0.53248050      -1.81020022       0.40155687
H        2.80924870       4.30216376       2.24223314        0       1.00000000       0.69002575       0.08268311       1.36867696
H        3.45183078       1.20379117      35.64722051        0       1.00000000      -0.95084571       0.27911532      -0.83560333
18
Lattice="5.612310241546866 0.0 0.0 0.0 4.860403243099165 0.0 0.0 0.0 44.58243212332868" Properties=species:S:1:pos:R:3:tags:I:1:masses:R:1:momenta:R:3 KEmax=23.26679191048647 iter=1199 volume=1216.1236359717223 ns_energy=-1.9421333443539743 last_walked_iter_clone=1148 ns_P=0.0 config_n_global=1199 ns_KE=5.597502048446134 pbc="T T T"