18
Lattice="5.612310241546866 0.0 0.0 0.0 4.860403243099165 0.0 0.0 0.0 44.58243212332868" Properties=species:S:1:pos:R:3:tags:I:1:masses:R:1:momenta:R:3:forces:R:3 KEmax=23.26679191048647 iter=87535 volume=1216.1236359717223 ns_energy=-11.647137731964973 last_walked_iter_clone=87309 energy=-11.6471377320182 stress="0.004540990155407984 3.940194697635948e-09 1.1604551009382794e-08 3.940194697635948e-09 0.004537139373107427 1.3035243172146379e-08 1.1604551009382794e-08 1.3035243172146379e-08 0.0023242477887002355" pbc="T T T"
H        1.40307756       0.81006721      20.00000000        3       1.00000000       0.00000000       0.00000000       0.00000000       0.00000000       0.00000000       0.00000000
H        4.20923268       0.81006721      20.00000000        3       1.00000000       0.00000000       0.00000000       0.00000000       0.00000000       0.00000000       0.00000000
H        0.00000000       3.24026883      20.00000000        3       1.00000000       0.00000000       0.00000000       0.00000000       0.00000000       0.00000000       0.00000000
H        2.80615512       3.24026883      20.00000000        3       1.00000000       0.00000000       0.00000000       0.00000000       0.00000000       0.00000000       0.00000000
H        0.00000000       1.62013441      22.29121606        2       1.00000000       0.00000000       0.00000000       0.00000000       0.00000000       0.00000000       0.00000000
H        2.80615512       1.62013441      22.29121606        2       1.00000000       0.00000000       0.00000000       0.00000000       0.00000000       0.00000000       0.00000000
H        1.40307756       4.05033604      22.29121606        2       1.00000000       0.00000000       0.00000000       0.00000000       0.00000000       0.00000000       0.00000000
H        4.20923268       4.05033604      22.29121606        2       1.00000000       0.00000000       0.00000000       0.00000000       0.00000000       0.00000000       0.00000000
H        0.00000000       0.00000000      24.58243212        1       1.00000000       0.00000000       0.00000000       0.00000000       0.00000000       0.00000000       0.00000000
H        2.80615512       0.00000000      24.58243212        1       1.00000000       0.00000000       0.00000000       0.00000000       0.00000000       0.00000000       0.00000000
H        1.40307756       2.43020162      24.58243212        1       1.00000000       0.00000000       0.00000000       0.00000000       0.00000000       0.00000000       0.00000000
H        4.20923268       2.43020162      24.58243212        1       1.00000000       0.00000000       0.00000000       0.00000000       0.00000000       0.00000000       0.00000000
H        5.60852007       1.60711399      17.79330578        0       1.00000000       0.00000290      -0.00000010       0.00000020      -0.00000532       0.00000648       0.00000549
H        1.40686903       4.03731806      17.79330421        0       1.00000000       0.00000091       0.00000231      -0.00000303      -0.00000416      -0.00001027      -0.00000307
H        1.40933795       0.79079619      15.56586771        0       1.00000000      -0.00000020      -0.00000415      -0.00000082       0.00000270       0.00000074      -0.00000206
H        2.81646901       1.63473825      17.76898341        0       1.00000000       0.00000191      -0.00000338      -0.00000077       0.00000210       0.00000322      -0.00000311
H        5.60605266       3.22099603      15.56586889        0       1.00000000       0.00000331       0.00000230      -0.00000329       0.00000295      -0.00000008       0.00000399
H        4.19892267       4.06494258      17.76898277        0       1.00000000      -0.00000203      -0.00000018       0.00000101       0.00000238      -0.00000221       0.00000059
18
Lattice="5.612310241546866 0.0 0.0 0.0 4.860403243099165 0.0 0.0 0.0 44.58243212332868" Properties=species:S:1:pos:R:3:tags:I:1:masses:R:1:momenta:R:3:forces:R:3 KEmax=23.26679191048647 iter=87535 volume=1216.1236359717223 ns_energy=-11.647137731964223 last_walked_iter_clone=87531 energy=-11.6471377320182 stress="0.004540990155407984 3.940194697635948e-09 1.1604551009382794e-08 3.940194697635948e-09 0.004537139373107427 1.3035243172146379e-08 1.1604551009382794e-08 1.3035243172146379e-08 0.0023242477887002355" pbc="T T T"
H        1.40307756       0.81006721      20.00000000        3       1.00000000       0.00000000       0.00000000       0.00000000       0.00000000       0.00000000       0.00000000
H        4.20923268       0.81006721      20.00000000        3       1.00000000       0.00000000       0.00000000       0.00000000       0.00000000       0.00000000       0.00000000
H        0.00000000       3.24026883      20.00000000        3       1.00000000       0.00000000       0.00000000       0.00000000       0.00000000       0.00000000       0.00000000
H        2.80615512       3.24026883      20.00000000        3       1.00000000       0.00000000       0.00000000       0.00000000       0.00000000       0.00000000       0.00000000
H        0.00000000       1.62013441      22.29121606        2       1.00000000       0.00000000       0.00000000       0.00000000       0.00000000       0.00000000       0.00000000
H        2.80615512       1.62013441      22.29121606        2       1.00000000       0.00000000       0.00000000       0.00000000       0.00000000       0.00000000       0.00000000
H        1.40307756       4.05033604      22.29121606        2       1.00000000       0.00000000       0.00000000       0.00000000       0.00000000       0.00000000       0.00000000
H        4.20923268       4.05033604      22.29121606        2       1.00000000       0.00000000       0.00000000       0.00000000       0.00000000       0.00000000       0.00000000
H        0.00000000       0.00000000      24.58243212        1       1.00000000       0.00000000       0.00000000       0.00000000       0.00000000       0.00000000       0.00000000
H        2.80615512       0.00000000      24.58243212        1       1.00000000       0.00000000       0.00000000       0.00000000       0.00000000       0.00000000       0.00000000
H        1.40307756       2.43020162      24.58243212        1       1.00000000       0.00000000       0.00000000       0.00000000       0.00000000       0.00000000       0.00000000
H        4.20923268       2.43020162      24.58243212        1       1.00000000       0.00000000       0.00000000       0.00000000       0.00000000       0.00000000       0.00000000
H        5.60851952       1.60711465      17.79330330        0       1.00000000       0.00000004       0.00000246      -0.00000270      -0.00000532       0.00000648       0.00000549
H        1.40687061       4.03731888      17.79330376        0       1.00000000      -0.00000070      -0.00000484       0.00000099      -0.00000416      -0.00001027      -0.00000307
H        1.40933531       0.79079543      15.56586645        0       1.00000000       0.00000721      -0.00000168       0.00000056       0.00000270       0.00000074      -0.00000206
H        2.81646617       1.63474028      17.76898267        0       1.00000000      -0.00000064       0.00000264      -0.00000070       0.00000210       0.00000322      -0.00000311
H        5.60605248       3.22099790      15.56586914        0       1.00000000       0.00000098       0.00000065      -0.00000078       0.00000295      -0.00000008       0.00000399
H        4.19892425       4.06494150      17.76898338        0       1.00000000       0.00000193      -0.00000040       0.00000110       0.00000238      -0.00000221       0.00000059
18
Lattice="5.612310241546866 0.0 0.0 0.0 4.860403243099165 0.0 0.0 0.0 44.58243212332868" Properties=species:S:1:pos:R:3:tags:I:1:masses:R:1:momenta:R:3:forces:R:3 KEmax=23.26679191048647 iter=87535 volume=1216.1236359717223 ns_energy=-11.647137731965325 last_walked_iter_clone=87192 energy=-11.6471377320182 stress="0.004540990155407984 3.940194697635948e-09 1.1604551009382794e-08 3.940194697635948e-09 0.004537139373107427 1.3035243172146379e-08 1.1604551009382794e-08 1.3035243172146379e-08 0.0023242477887002355" pbc="T T T"
H        1.40307756       0.81006721      20.00000000        3       1.00000000       0.00000000       0.00000000       0.00000000       0.00000000       0.00000000       0.00000000
H        4.20923268       0.81006721      20.00000000        3       1.00000000       0.00000000       0.00000000       0.00000000       0.00000000       0.00000000       0.00000000
H        0.00000000       3.24026883      20.00000000        3       1.00000000       0.00000000       0.00000000       0.00000000       0.00000000       0.00000000       0.00000000
H        2.80615512       3.24026883      20.00000000        3       1.00000000       0.00000000       0.00000000       0.00000000       0.00000000       0.00000000       0.00000000
H        0.00000000       1.62013441      22.29121606        2       1.00000000       0.00000000       0.00000000       0.00000000       0.00000000       0.00000000       0.00000000
H        2.80615512       1.62013441      22.29121606        2       1.00000000       0.00000000       0.00000000       0.00000000       0.00000000       0.00000000       0.00000000
H        1.40307756       4.05033604      22.29121606        2       1.00000000       0.00000000       0.00000000       0.00000000       0.00000000       0.00000000       0.00000000
H        4.20923268       4.05033604      22.29121606        2       1.00000000       0.00000000       0.00000000       0.00000000       0.00000000       0.00000000       0.00000000
H        0.00000000       0.00000000      24.58243212        1       1.00000000       0.00000000       0.00000000       0.00000000       0.00000000       0.00000000       0.00000000
H        2.80615512       0.00000000      24.58243212        1       1.00000000       0.00000000       0.00000000       0.00000000       0.00000000       0.00000000       0.00000000
H        1.40307756       2.43020162      24.58243212        1       1.00000000       0.00000000       0.00000000       0.00000000       0.00000000       0.00000000       0.00000000
H        4.20923268       2.43020162      24.58243212        1       1.00000000       0.00000000       0.00000000       0.00000000       0.00000000       0.00000000       0.00000000
H        5.60851743       1.60711509      17.79330533        0       1.00000000       0.00000467      -0.00000037       0.00000047      -0.00000532       0.00000648       0.00000549
H        1.40686954       4.03731768      17.79330664        0       1.00000000       0.00000230       0.00000412       0.00000113      -0.00000416      -0.00001027      -0.00000307
H        1.40933158       0.79079553      15.56586899        0       1.00000000       0.00000121      -0.00000141       0.00000059       0.00000270       0.00000074      -0.00000206
H        2.81646480       1.63473830      17.76898434        0       1.00000000       0.00000078       0.00000120       0.00000438       0.00000210       0.00000322      -0.00000311
H        5.60605091       3.22099352      15.56587026        0       1.00000000      -0.00000059       0.00000227       0.00000309       0.00000295      -0.00000008       0.00000399
H        4.19892077       4.06494149      17.76898367        0       1.00000000      -0.00000120       0.00000249      -0.00000067       0.00000238      -0.00000221       0.00000059
18
Lattice="5.612310241546866 0.0 0.0 0.0 4.860403243099165 0.0 0.0 0.0 44.58243212332868" Properties=species:S:1:pos:R:3:tags:I:1:masses:R:1:momenta:R:3:forces:R:3 KEmax=23.26679191048647 iter=87535 volume=1216.1236359717223 ns_energy=-11.647137731966266 last_walked_iter_clone=87340 energy=-11.6471377320182 stress="0.004540990155407984 3.940194697635948e-09 1.1604551009382794e-08 3.940194697635948e-09 0.004537139373107427 1.3035243172146379e-08 1.1604551009382794e-08 1.3035243172146379e-08 0.0023242477887002355" pbc="T T T"
H        1.40307756       0.81006721      20.00000000        3       1.00000000       0.00000000       0.00000000       0.00000000       0.00000000       0.00000000       0.00000000
H        4.20923268       0.81006721      20.00000000        3       1.00000000       0.00000000       0.00000000       0.00000000       0.00000000       0.00000000       0.00000000
H        0.00000000       3.24026883      20.00000000        3       1.00000000       0.00000000       0.00000000       0.00000000       0.00000000       0.00000000       0.00000000
H        2.80615512       3.24026883      20.00000000        3       1.00000000       0.00000000       0.00000000       0.00000000       0.00000000       0.00000000       0.00000000
H        0.00000000       1.62013441      22.29121606        2       1.00000000       0.00000000       0.00000000       0.00000000       0.00000000       0.00000000       0.00000000
H        2.80615512       1.62013441      22.29121606        2       1.00000000       0.00000000       0.00000000       0.00000000       0.00000000       0.00000000       0.00000000
H        1.40307756       4.05033604      22.29121606        2       1.00000000       0.00000000       0.00000000       0.00000000       0.00000000       0.00000000       0.00000000
H        4.20923268       4.05033604      22.29121606        2       1.00000000       0.00000000       0.00000000       0.00000000       0.00000000       0.00000000       0.00000000
H        0.00000000       0.00000000      24.58243212        1       1.00000000       0.00000000       0.00000000       0.00000000       0.00000000       0.00000000       0.00000000
H        2.80615512       0.00000000      24.58243212        1       1.00000000       0.00000000       0.00000000       0.00000000       0.00000000       0.00000000       0.00000000
H        1.40307756       2.43020162      24.58243212        1       1.00000000       0.00000000       0.00000000       0.00000000       0.00000000       0.00000000       0.00000000
H        4.20923268       2.43020162      24.58243212        1       1.00000000       0.00000000       0.00000000       0.00000000       0.00000000       0.00000000       0.00000000
H        5.60851760       1.60711703      17.79330495        0       1.00000000       0.00000261       0.00000087      -0.00000323      -0.00000532       0.00000648       0.00000549
H        1.40686939       4.03731701      17.79330191        0       1.00000000       0.00000251      -0.00000029      -0.00000150      -0.00000416      -0.00001027      -0.00000307
H        1.40933772       0.79079894      15.56586518        0       1.00000000      -0.00000002      -0.00000118       0.00000046       0.00000270       0.00000074      -0.00000206
H        2.81646378       1.63473917      17.76898452        0       1.00000000      -0.00000017      -0.00000068      -0.00000078       0.00000210       0.00000322      -0.00000311
H        5.60604919       3.22099815      15.56586773        0       1.00000000      -0.00000215       0.00000217      -0.00000221       0.00000295      -0.00000008       0.00000399
H        4.19892307       4.06494180      17.76898190        0       1.00000000      -0.00000059       0.00000035       0.00000285       0.00000238      -0.00000221       0.00000059
18
Lattice="5.612310241546866 0.0 0.0 0.0 4.860403243099165 0.0 0.0 0.0 44.58243212332868" Properties=species:S:1:pos:R:3:tags:I:1:masses:R:1:momenta:R:3:forces:R:3 KEmax=23.26679191048647 iter=87535 volume=1216.1236359717223 ns_energy=-11.647137731963635 last_walked_iter_clone=87405 energy=-11.6471377320182 stress="0.004540990155407984 3.940194697635948e-09 1.1604551009382794e-08 3.940194697635948e-09 0.004537139373107427 1.3035243172146379e-08 1.1604551009382794e-08 1.3035243172146379e-08 0.0023242477887002355" pbc="T T T"
H        1.40307756       0.81006721      20.00000000        3       1.00000000       0.00000000       0.00000000       0.00000000       0.00000000       0.00000000       0.00000000
H        4.20923268       0.81006721      20.00000000        3       1.00000000       0.00000000       0.00000000       0.00000000       0.00000000       0.00000000       0.00000000
H        0.00000000       3.24026883      20.00000000        3       1.00000000       0.00000000       0.00000000       0.00000000       0.00000000       0.00000000       0.00000000
H        2.80615512       3.24026883      20.00000000        3       1.00000000       0.00000000       0.00000000       0.00000000       0.00000000       0.00000000       0.00000000
H        0.00000000       1.62013441      22.29121606        2       1.00000000       0.00000000       0.00000000       0.00000000       0.00000000       0.00000000       0.00000000
H        2.80615512       1.62013441      22.29121606        2       1.00000000       0.00000000       0.00000000       0.00000000       0.00000000       0.00000000       0.00000000
H        1.40307756       4.05033604      22.29121606        2       1.00000000       0.00000000       0.00000000       0.00000000       0.00000000       0.00000000       0.00000000
H        4.20923268       4.05033604      22.29121606        2       1.00000000       0.00000000       0.00000000       0.00000000       0.00000000       0.00000000       0.00000000
H        0.00000000       0.00000000      24.58243212        1       1.00000000       0.00000000       0.00000000       0.00000000       0.00000000       0.00000000       0.00000000
H        2.80615512       0.00000000      24.58243212        1       1.00000000       0.00000000       0.00000000       0.00000000       0.00000000       0.00000000       0.00000000
H        1.40307756       2.43020162      24.58243212        1       1.00000000       0.00000000       0.00000000       0.00000000       0.00000000       0.00000000       0.00000000
H        4.20923268       2.43020162      24.58243212        1       1.00000000       0.00000000       0.00000000       0.00000000       0.00000000       0.00000000       0.00000000
H        5.60851836       1.60711624      17.79330519        0       1.00000000       0.00000104      -0.00000238      -0.00000015      -0.00000532       0.00000648       0.00000549
H        1.40687110       4.03731836      17.79330288        0       1.00000000      -0.00000313       0.00000360      -0.00000197      -0.00000416      -0.00001027      -0.00000307
H        1.40933440       0.79080056      15.56586810        0       1.00000000      -0.00000032       0.00000010       0.00000143       0.00000270       0.00000074      -0.00000206
H        2.81646675       1.63473924      17.76898574        0       1.00000000       0.00000183       0.00000111       0.00000007       0.00000210       0.00000322      -0.00000311
H        5.60604852       3.22100265      15.56586888        0       1.00000000       0.00000365      -0.00000115      -0.00000253       0.00000295      -0.00000008       0.00000399
H        4.19892372       4.06494282      17.76898465        0       1.00000000       0.00000040       0.00000288      -0.00000375       0.00000238      -0.00000221       0.00000059
18
Lattice="5.612310241546866 0.0 0.0 0.0 4.860403243099165 0.0 0.0 0.0 44.58243212332868" Properties=species:S:1:pos:R:3:tags:I:1:masses:R:1:momenta:R:3:forces:R:3 KEmax=23.26679191048647 iter=87535 volume=1216.1236359717223 ns_energy=-11.647137731966877 last_walked_iter_clone=87288 energy=-11.6471377320182 stress="0.004540990155407984 3.940194697635948e-09 1.1604551009382794e-08 3.940194697635948e-09 0.004537139373107427 1.3035243172146379e-08 1.1604551009382794e-08 1.3035243172146379e-08 0.0023242477887002355" pbc="T T T"
H        1.40307756       0.81006721      20.00000000        3       1.00000000       0.00000000       0.00000000       0.00000000       0.00000000       0.00000000       0.00000000
H        4.20923268       0.81006721      20.00000000        3       1.00000000       0.00000000       0.00000000       0.00000000       0.00000000       0.00000000       0.00000000
H        0.00000000       3.24026883      20.00000000        3       1.00000000       0.00000000       0.00000000       0.00000000       0.00000000       0.00000000       0.00000000
H        2.80615512       3.24026883      20.00000000        3       1.00000000       0.00000000       0.00000000       0.00000000       0.00000000       0.00000000       0.00000000
H        0.00000000       1.62013441      22.29121606        2       1.00000000       0.00000000       0.00000000       0.00000000       0.00000000       0.00000000       0.00000000
H        2.80615512       1.62013441      22.29121606        2       1.00000000       0.00000000       0.00000000       0.00000000       0.00000000       0.00000000       0.00000000
H        1.40307756       4.05033604      22.29121606        2       1.00000000       0.00000000       0.00000000       0.00000000       0.00000000       0.00000000       0.00000000
H        4.20923268       4.05033604      22.29121606        2       1.00000000       0.00000000       0.00000000       0.00000000       0.00000000       0.00000000       0.00000000
H        0.00000000       0.00000000      24.58243212        1       1.00000000       0.00000000       0.00000000       0.00000000       0.00000000       0.00000000       0.00000000
H        2.80615512       0.00000000      24.58243212        1       1.00000000       0.00000000       0.00000000       0.00000000       0.00000000       0.00000000       0.00000000
H        1.40307756       2.43020162      24.58243212        1       1.00000000       0.00000000       0.00000000       0.00000000       0.00000000       0.00000000       0.00000000
H        4.20923268       2.43020162      24.58243212        1       1.00000000       0.00000000       0.00000000       0.00000000       0.00000000       0.00000000       0.00000000
H        5.60851659       1.60711563      17.79330380        0       1.00000000      -0.00000143       0.00000023       0.00000197      -0.00000532       0.00000648       0.00000549
H        1.40686804       4.03731703      17.79330381        0       1.00000000       0.00000118       0.00000393       0.00000176      -0.00000416      -0.00001027      -0.00000307
H        1.40933310       0.79079838      15.56586736        0       1.00000000      -0.00000139       0.00000165       0.00000233       0.00000270       0.00000074      -0.00000206
H        2.81646603       1.63473892      17.76898325        0       1.00000000       0.00000182       0.00000267       0.00000278       0.00000210       0.00000322      -0.00000311
H        5.60604668       3.22100012      15.56586911        0       1.00000000      -0.00000409       0.00000073      -0.00000352       0.00000295      -0.00000008       0.00000399
H        4.19891753       4.06494121      17.76898372        0       1.00000000       0.00000203      -0.00000098       0.00000399       0.00000238      -0.00000221       0.00000059
18
Lattice="5.612310241546866 0.0 0.0 0.0 4.860403243099165 0.0 0.0 0.0 44.58243212332868" Properties=species:S:1:pos:R:3:tags:I:1:masses:R:1:momenta:R:3:forces:R:3 KEmax=23.26679191048647 iter=87535 volume=1216.1236359717223 ns_energy=-11.647137731964131 last_walked_iter_clone=87494 energy=-11.6471377320182 stress="0.004540990155407984 3.940194697635948e-09 1.1604551009382794e-08 3.940194697635948e-09 0.004537139373107427 1.3035243172146379e-08 1.1604551009382794e-08 1.3035243172146379e-08 0.0023242477887002355" pbc="T T T"
H        1.40307756       0.81006721      20.00000000        3       1.00000000       0.00000000       0.00000000       0.00000000       0.00000000       0.00000000       0.00000000
H        4.20923268       0.81006721      20.00000000        3       1.00000000       0.00000000       0.00000000       0.00000000       0.00000000       0.00000000       0.00000000
H        0.00000000       3.24026883      20.00000000        3       1.00000000       0.00000000       0.00000000       0.00000000       0.00000000       0.00000000       0.00000000
H        2.80615512       3.24026883      20.00000000        3       1.00000000       0.00000000       0.00000000       0.00000000       0.00000000       0.00000000       0.00000000
H        0.00000000       1.62013441      22.29121606        2       1.00000000       0.00000000       0.00000000       0.00000000       0.00000000       0.00000000       0.00000000
H        2.80615512       1.62013441      22.29121606        2       1.00000000       0.00000000       0.00000000       0.00000000       0.00000000       0.00000000       0.00000000
H        1.40307756       4.05033604      22.29121606        2       1.00000000       0.00000000       0.00000000       0.00000000       0.00000000       0.00000000       0.00000000
H        4.20923268       4.05033604      22.29121606        2       1.00000000       0.00000000       0.00000000       0.00000000       0.00000000       0.00000000       0.00000000
H        0.00000000       0.00000000      24.58243212        1       1.00000000       0.00000000       0.00000000       0.00000000       0.00000000       0.00000000       0.00000000
H        2.80615512       0.00000000      24.58243212        1       1.00000000       0.00000000       0.00000000       0.00000000       0.00000000       0.00000000       0.00000000
H        1.40307756       2.43020162      24.58243212        1       1.00000000       0.00000000       0.00000000       0.00000000       0.00000000       0.00000000       0.00000000
H        4.20923268       2.43020162      24.58243212        1       1.00000000       0.00000000       0.00000000       0.00000000       0.00000000       0.00000000       0.00000000
H        5.60851589       1.60711764      17.79330504        0       1.00000000      -0.00000453       0.00000207      -0.00000082      -0.00000532       0.00000648       0.00000549
H        1.40686774       4.03731785      17.79330581        0       1.00000000       0.00000015       0.00000194      -0.00000286      -0.00000416      -0.00001027      -0.00000307
H        1.40933136       0.79079605      15.56586923        0       1.00000000       0.00000036       0.00000118      -0.00000111       0.00000270       0.00000074      -0.00000206
H        2.81646422       1.63473858      17.76898115        0       1.00000000       0.00000101      -0.00000087       0.00000095       0.00000210       0.00000322      -0.00000311
H        5.60604549       3.22099785      15.56586677        0       1.00000000      -0.00000224       0.00000335      -0.00000217       0.00000295      -0.00000008       0.00000399
H        4.19891990       4.06494079      17.76898139        0       1.00000000       0.00000062       0.00000316      -0.00000434       0.00000238      -0.00000221       0.00000059
18
Lattice="5.612310241546866 0.0 0.0 0.0 4.860403243099165 0.0 0.0 0.0 44.58243212332868" Properties=species:S:1:pos:R:3:tags:I:1:masses:R:1:momenta:R:3:forces:R:3 KEmax=23.26679191048647 iter=87535 volume=1216.1236359717223 ns_energy=-11.647137731966325 last_walked_iter_clone=87418 energy=-11.6471377320182 stress="0.004540990155407984 3.940194697635948e-09 1.1604551009382794e-08 3.940194697635948e-09 0.004537139373107427 1.3035243172146379e-08 1.1604551009382794e-08 1.3035243172146379e-08 0.0023242477887002355" pbc="T T T"
H        1.40307756       0.81006721      20.00000000        3       1.00000000       0.00000000       0.00000000       0.00000000       0.00000000       0.00000000       0.00000000
H        4.20923268       0.81006721      20.00000000        3       1.00000000       0.00000000       0.00000000       0.00000000       0.00000000       0.00000000       0.00000000
H        0.00000000       3.24026883      20.00000000        3       1.00000000       0.00000000       0.00000000       0.00000000       0.00000000       0.00000000       0.00000000
H        2.80615512       3.24026883      20.00000000        3       1.00000000       0.00000000       0.00000000       0.00000000       0.00000000       0.00000000       0.00000000
H        0.00000000       1.62013441      22.29121606        2       1.00000000       0.00000000       0.00000000       0.00000000       0.00000000       0.00000000       0.00000000
H        2.80615512       1.62013441      22.29121606        2       1.00000000       0.00000000       0.00000000       0.00000000       0.00000000       0.00000000       0.00000000
H        1.40307756       4.05033604      22.29121606        2       1.00000000       0.00000000       0.00000000       0.00000000       0.00000000       0.00000000       0.00000000
H        4.20923268       4.05033604      22.29121606        2       1.00000000       0.00000000       0.00000000       0.00000000       0.00000000       0.00000000       0.00000000
H        0.00000000       0.00000000      24.58243212        1       1.00000000       0.00000000       0.00000000       0.00000000       0.00000000       0.00000000       0.00000000
H        2.80615512       0.00000000      24.58243212        1       1.00000000       0.00000000       0.00000000       0.00000000       0.00000000       0.00000000       0.00000000
H        1.40307756       2.43020162      24.58243212        1       1.00000000       0.00000000       0.00000000       0.00000000       0.00000000       0.00000000       0.00000000
H        4.20923268       2.43020162      24.58243212        1       1.00000000       0.00000000       0.00000000       0.00000000       0.00000000       0.00000000       0.00000000
H        5.60852014       1.60711407      17.79330482        0       1.00000000      -0.00000034       0.00000194      -0.00000030      -0.00000532       0.00000648       0.00000549
H        1.40687112       4.03731835      17.79330545        0       1.00000000       0.00000038      -0.00000028      -0.00000055      -0.00000416      -0.00001027      -0.00000307
H        1.40933547       0.79079563      15.56586817        0       1.00000000       0.00000100      -0.00000079       0.00000288       0.00000270       0.00000074      -0.00000206