22
Lattice="5.612310241546866 0.0 0.0 0.0 4.860403243099165 0.0 0.0 0.0 44.58243212332868" Properties=species:S:1:pos:R:3:tags:I:1:masses:R:1:momenta:R:3:forces:R:3 KEmax=28.4371901128168 iter=100239 volume=1216.1236359717223 set_wall=T ns_energy=-14.783690436201804 last_walked_iter_clone=100096 energy=-14.78386634863254 stress="0.022224385201310974 6.324320941160568e-05 -7.839796834606923e-05 6.324320941160568e-05 0.022212197596870032 6.196617407222893e-05 -7.839796834606923e-05 6.196617407222893e-05 0.009276506301069734" pbc="T T F"
H        1.40307756       0.81006721      20.00000000        3       1.00000000       0.00000000       0.00000000       0.00000000       0.00000000       0.00000000       0.00000000
H        4.20923268       0.81006721      20.00000000        3       1.00000000       0.00000000       0.00000000       0.00000000       0.00000000       0.00000000       0.00000000
H        0.00000000       3.24026883      20.00000000        3       1.00000000       0.00000000       0.00000000       0.00000000       0.00000000       0.00000000       0.00000000
H        2.80615512       3.24026883      20.00000000        3       1.00000000       0.00000000       0.00000000       0.00000000       0.00000000       0.00000000       0.00000000
H        0.00000000       1.62013441      22.29121606        2       1.00000000       0.00000000       0.00000000       0.00000000       0.00000000       0.00000000       0.00000000
H        2.80615512       1.62013441      22.29121606        2       1.00000000       0.00000000       0.00000000       0.00000000       0.00000000       0.00000000       0.00000000
H        1.40307756       4.05033604      22.29121606        2       1.00000000       0.00000000       0.00000000       0.00000000       0.00000000       0.00000000       0.00000000
H        4.20923268       4.05033604      22.29121606        2       1.00000000       0.00000000       0.00000000       0.00000000       0.00000000       0.00000000       0.00000000
H        0.00000000       0.00000000      24.58243212        1       1.00000000       0.00000000       0.00000000       0.00000000       0.00000000       0.00000000       0.00000000
H        2.80615512       0.00000000      24.58243212        1       1.00000000       0.00000000       0.00000000       0.00000000       0.00000000       0.00000000       0.00000000
H        1.40307756       2.43020162      24.58243212        1       1.00000000       0.00000000       0.00000000       0.00000000       0.00000000       0.00000000       0.00000000
H        4.20923268       2.43020162      24.58243212        1       1.00000000       0.00000000       0.00000000       0.00000000       0.00000000       0.00000000       0.00000000
H        0.00363010       1.62772003      26.78984988        0       1.00000000       0.00331485      -0.00014917      -0.00611448       0.01536032       0.01345172      -0.01135493
H        1.39501332       0.83650158      29.02429467        0       1.00000000       0.00454870       0.01200703       0.00324007      -0.00101401      -0.00417983      -0.01441208
H        4.21535623       4.04611107      26.78899613        0       1.00000000       0.00209402       0.00060349       0.00559084       0.00217857      -0.02030334      -0.00845590
H        2.80902776       4.83752662      31.21416281        0       1.00000000      -0.00265994       0.00550965       0.00381378       0.00731277       0.00218942      -0.00693366
H        2.80463052       3.22564854      28.99005801        0       1.00000000      -0.00761946      -0.00434593       0.00357315      -0.02968983       0.01707699       0.02853412
H        4.22019354       2.41211431      31.22394573        0       1.00000000       0.00347904       0.00389864      -0.00550291      -0.00197403      -0.00454448      -0.00332320
H        2.80974076       1.61243808      26.78964500        0       1.00000000      -0.00166672       0.00056639      -0.00492317       0.00727582      -0.02087899      -0.02205346
H        1.40555934       4.06347442      26.79453034        0       1.00000000      -0.00705512       0.00224048       0.00004868      -0.01091607       0.00553554       0.00152845
H        4.21723980       0.80008000      28.99015242        0       1.00000000      -0.00450316      -0.00656722      -0.00919680       0.00223245      -0.01359777       0.01900564
H        0.01186493       3.25758006      29.01919514        0       1.00000000       0.00527910       0.00757154       0.00134628       0.01875081       0.01102600       0.00397929
22
Lattice="5.612310241546866 0.0 0.0 0.0 4.860403243099165 0.0 0.0 0.0 44.58243212332868" Properties=species:S:1:pos:R:3:tags:I:1:masses:R:1:momenta:R:3:forces:R:3 KEmax=28.4371901128168 iter=100239 volume=1216.1236359717223 set_wall=T ns_energy=-14.783737395560498 last_walked_iter_clone=100202 energy=-14.78386634863254 stress="0.022224385201310974 6.324320941160568e-05 -7.839796834606923e-05 6.324320941160568e-05 0.022212197596870032 6.196617407222893e-05 -7.839796834606923e-05 6.196617407222893e-05 0.009276506301069734" pbc="T T F"
H        1.40307756       0.81006721      20.00000000        3       1.00000000       0.00000000       0.00000000       0.00000000       0.00000000       0.00000000       0.00000000
H        4.20923268       0.81006721      20.00000000        3       1.00000000       0.00000000       0.00000000       0.00000000       0.00000000       0.00000000       0.00000000
H        0.00000000       3.24026883      20.00000000        3       1.00000000       0.00000000       0.00000000       0.00000000       0.00000000       0.00000000       0.00000000
H        2.80615512       3.24026883      20.00000000        3       1.00000000       0.00000000       0.00000000       0.00000000       0.00000000       0.00000000       0.00000000
H        0.00000000       1.62013441      22.29121606        2       1.00000000       0.00000000       0.00000000       0.00000000       0.00000000       0.00000000       0.00000000
H        2.80615512       1.62013441      22.29121606        2       1.00000000       0.00000000       0.00000000       0.00000000       0.00000000       0.00000000       0.00000000
H        1.40307756       4.05033604      22.29121606        2       1.00000000       0.00000000       0.00000000       0.00000000       0.00000000       0.00000000       0.00000000
H        4.20923268       4.05033604      22.29121606        2       1.00000000       0.00000000       0.00000000       0.00000000       0.00000000       0.00000000       0.00000000
H        0.00000000       0.00000000      24.58243212        1       1.00000000       0.00000000       0.00000000       0.00000000       0.00000000       0.00000000       0.00000000
H        2.80615512       0.00000000      24.58243212        1       1.00000000       0.00000000       0.00000000       0.00000000       0.00000000       0.00000000       0.00000000
H        1.40307756       2.43020162      24.58243212        1       1.00000000       0.00000000       0.00000000       0.00000000       0.00000000       0.00000000       0.00000000
H        4.20923268       2.43020162      24.58243212        1       1.00000000       0.00000000       0.00000000       0.00000000       0.00000000       0.00000000       0.00000000
H       -0.00769205       1.62634598      26.79430182        0       1.00000000       0.00111778      -0.01547739      -0.00763896       0.01536032       0.01345172      -0.01135493
H        1.38576990       0.82393048      29.02086842        0       1.00000000       0.00338144      -0.00125461       0.00604949      -0.00101401      -0.00417983      -0.01441208
H        4.20606208       4.04786157      26.78629405        0       1.00000000      -0.00799614       0.00662735       0.00053446       0.00217857      -0.02030334      -0.00845590
H        2.79625311       4.83994607      31.22332340        0       1.00000000      -0.00168086      -0.00180018      -0.00395523       0.00731277       0.00218942      -0.00693366
H        2.79488757       3.22879490      28.98995615        0       1.00000000      -0.00357329       0.00094795      -0.00511611      -0.02968983       0.01707699       0.02853412
H        4.21318368       2.41153152      31.22237243        0       1.00000000      -0.00181015       0.00109525       0.00661292      -0.00197403      -0.00454448      -0.00332320
H        2.80481557       1.61396185      26.78633107        0       1.00000000      -0.00540168      -0.00675619      -0.00099867       0.00727582      -0.02087899      -0.02205346
H        1.39717724       4.05719964      26.78884228        0       1.00000000       0.00270699      -0.00262739       0.00120211      -0.01091607       0.00553554       0.00152845
H        4.20967309       0.79766692      28.99542183        0       1.00000000      -0.00511631       0.00290310      -0.00612867       0.00223245      -0.01359777       0.01900564
H        0.00315468       3.25845535      29.01801957        0       1.00000000       0.00124856      -0.00535115       0.01282227       0.01875081       0.01102600       0.00397929
22
Lattice="5.612310241546866 0.0 0.0 0.0 4.860403243099165 0.0 0.0 0.0 44.58243212332868" Properties=species:S:1:pos:R:3:tags:I:1:masses:R:1:momenta:R:3:forces:R:3 KEmax=28.4371901128168 iter=100239 volume=1216.1236359717223 set_wall=T ns_energy=-14.783683181729899 last_walked_iter_clone=100131 energy=-14.78386634863254 stress="0.022224385201310974 6.324320941160568e-05 -7.839796834606923e-05 6.324320941160568e-05 0.022212197596870032 6.196617407222893e-05 -7.839796834606923e-05 6.196617407222893e-05 0.009276506301069734" pbc="T T F"
H        1.40307756       0.81006721      20.00000000        3       1.00000000       0.00000000       0.00000000       0.00000000       0.00000000       0.00000000       0.00000000
H        4.20923268       0.81006721      20.00000000        3       1.00000000       0.00000000       0.00000000       0.00000000       0.00000000       0.00000000       0.00000000
H        0.00000000       3.24026883      20.00000000        3       1.00000000       0.00000000       0.00000000       0.00000000       0.00000000       0.00000000       0.00000000
H        2.80615512       3.24026883      20.00000000        3       1.00000000       0.00000000       0.00000000       0.00000000       0.00000000       0.00000000       0.00000000
H        0.00000000       1.62013441      22.29121606        2       1.00000000       0.00000000       0.00000000       0.00000000       0.00000000       0.00000000       0.00000000
H        2.80615512       1.62013441      22.29121606        2       1.00000000       0.00000000       0.00000000       0.00000000       0.00000000       0.00000000       0.00000000
H        1.40307756       4.05033604      22.29121606        2       1.00000000       0.00000000       0.00000000       0.00000000       0.00000000       0.00000000       0.00000000
H        4.20923268       4.05033604      22.29121606        2       1.00000000       0.00000000       0.00000000       0.00000000       0.00000000       0.00000000       0.00000000
H        0.00000000       0.00000000      24.58243212        1       1.00000000       0.00000000       0.00000000       0.00000000       0.00000000       0.00000000       0.00000000
H        2.80615512       0.00000000      24.58243212        1       1.00000000       0.00000000       0.00000000       0.00000000       0.00000000       0.00000000       0.00000000
H        1.40307756       2.43020162      24.58243212        1       1.00000000       0.00000000       0.00000000       0.00000000       0.00000000       0.00000000       0.00000000
H        4.20923268       2.43020162      24.58243212        1       1.00000000       0.00000000       0.00000000       0.00000000       0.00000000       0.00000000       0.00000000
H        0.00158319       1.62853223      26.79260116        0       1.00000000      -0.00218192       0.00638814       0.00106259       0.01536032       0.01345172      -0.01135493
H        1.38955037       0.82204640      29.01611624        0       1.00000000      -0.00387659      -0.00252139       0.00297164      -0.00101401      -0.00417983      -0.01441208
H        4.20600641       4.03807262      26.79214837        0       1.00000000       0.00247640       0.00787553      -0.00855634       0.00217857      -0.02030334      -0.00845590
H        2.80719635       4.83703831      31.22133257        0       1.00000000      -0.00417445      -0.00115319      -0.00326011       0.00731277       0.00218942      -0.00693366
H        2.79452692       3.21944855      28.99740573        0       1.00000000       0.00013220       0.00662517       0.00281512      -0.02968983       0.01707699       0.02853412
H        4.21927444       2.40352762      31.22084732        0       1.00000000      -0.00247950       0.00131592       0.00278671      -0.00197403      -0.00454448      -0.00332320
H        2.80527708       1.61019005      26.78824173        0       1.00000000      -0.00748694       0.00638667      -0.00765221       0.00727582      -0.02087899      -0.02205346
H        1.39923151       4.05529246      26.79089107        0       1.00000000      -0.00411895       0.01053146       0.00194909      -0.01091607       0.00553554       0.00152845
H        4.21252181       0.78967279      28.99090167        0       1.00000000      -0.00604199      -0.00016508       0.00678902       0.00223245      -0.01359777       0.01900564
H        0.00867471       3.25080578      29.02452628        0       1.00000000       0.00818585       0.00553013      -0.00177963       0.01875081       0.01102600       0.00397929
22
Lattice="5.612310241546866 0.0 0.0 0.0 4.860403243099165 0.0 0.0 0.0 44.58243212332868" Properties=species:S:1:pos:R:3:tags:I:1:masses:R:1:momenta:R:3:forces:R:3 KEmax=28.4371901128168 iter=100239 volume=1216.1236359717223 set_wall=T ns_energy=-14.783701200731254 last_walked_iter_clone=100236 energy=-14.78386634863254 stress="0.022224385201310974 6.324320941160568e-05 -7.839796834606923e-05 6.324320941160568e-05 0.022212197596870032 6.196617407222893e-05 -7.839796834606923e-05 6.196617407222893e-05 0.009276506301069734" pbc="T T F"
H        1.40307756       0.81006721      20.00000000        3       1.00000000       0.00000000       0.00000000       0.00000000       0.00000000       0.00000000       0.00000000
H        4.20923268       0.81006721      20.00000000        3       1.00000000       0.00000000       0.00000000       0.00000000       0.00000000       0.00000000       0.00000000
H        0.00000000       3.24026883      20.00000000        3       1.00000000       0.00000000       0.00000000       0.00000000       0.00000000       0.00000000       0.00000000
H        2.80615512       3.24026883      20.00000000        3       1.00000000       0.00000000       0.00000000       0.00000000       0.00000000       0.00000000       0.00000000
H        0.00000000       1.62013441      22.29121606        2       1.00000000       0.00000000       0.00000000       0.00000000       0.00000000       0.00000000       0.00000000
H        2.80615512       1.62013441      22.29121606        2       1.00000000       0.00000000       0.00000000       0.00000000       0.00000000       0.00000000       0.00000000
H        1.40307756       4.05033604      22.29121606        2       1.00000000       0.00000000       0.00000000       0.00000000       0.00000000       0.00000000       0.00000000
H        4.20923268       4.05033604      22.29121606        2       1.00000000       0.00000000       0.00000000       0.00000000       0.00000000       0.00000000       0.00000000
H        0.00000000       0.00000000      24.58243212        1       1.00000000       0.00000000       0.00000000       0.00000000       0.00000000       0.00000000       0.00000000
H        2.80615512       0.00000000      24.58243212        1       1.00000000       0.00000000       0.00000000       0.00000000       0.00000000       0.00000000       0.00000000
H        1.40307756       2.43020162      24.58243212        1       1.00000000       0.00000000       0.00000000       0.00000000       0.00000000       0.00000000       0.00000000
H        4.20923268       2.43020162      24.58243212        1       1.00000000       0.00000000       0.00000000       0.00000000       0.00000000       0.00000000       0.00000000
H        0.00015480       1.62293377      26.79117105        0       1.00000000      -0.00059701      -0.00433792       0.00317609       0.01536032       0.01345172      -0.01135493
H        1.39404370       0.81863594      29.02252496        0       1.00000000      -0.00216916       0.00364562       0.00635839      -0.00101401      -0.00417983      -0.01441208
H        4.20777007       4.04056861      26.78839592        0       1.00000000       0.00650930      -0.00125204       0.00115633       0.00217857      -0.02030334      -0.00845590
H        2.81977202       4.81593445      31.21415083        0       1.00000000      -0.00529724      -0.00607113      -0.00210754       0.00731277       0.00218942      -0.00693366
H        2.80444832       3.21664677      28.98416123        0       1.00000000      -0.00424204       0.00118597      -0.00789623      -0.02968983       0.01707699       0.02853412
H        4.22062830       2.39320227      31.22118768        0       1.00000000       0.00438291       0.00658524      -0.00416541      -0.00197403      -0.00454448      -0.00332320
H        2.80396160       1.61196572      26.78643440        0       1.00000000      -0.00704032       0.00394109      -0.00365319       0.00727582      -0.02087899      -0.02205346
H        1.40205080       4.05228169      26.79098575        0       1.00000000      -0.00647911       0.00148441       0.00466537      -0.01091607       0.00553554       0.00152845
H        4.20921394       0.79092590      28.98647590        0       1.00000000       0.00388685       0.00654091      -0.00345908       0.00223245      -0.01359777       0.01900564
H        0.00973634       3.24989275      29.01508953        0       1.00000000      -0.00686660       0.00182775       0.00317214       0.01875081       0.01102600       0.00397929
22
Lattice="5.612310241546866 0.0 0.0 0.0 4.860403243099165 0.0 0.0 0.0 44.58243212332868" Properties=species:S:1:pos:R:3:tags:I:1:masses:R:1:momenta:R:3:forces:R:3 KEmax=28.4371901128168 iter=100239 volume=1216.1236359717223 set_wall=T ns_energy=-14.783687819728048 last_walked_iter_clone=99612 energy=-14.78386634863254 stress="0.022224385201310974 6.324320941160568e-05 -7.839796834606923e-05 6.324320941160568e-05 0.022212197596870032 6.196617407222893e-05 -7.839796834606923e-05 6.196617407222893e-05 0.009276506301069734" pbc="T T F"
H        1.40307756       0.81006721      20.00000000        3       1.00000000       0.00000000       0.00000000       0.00000000       0.00000000       0.00000000       0.00000000
H        4.20923268       0.81006721      20.00000000        3       1.00000000       0.00000000       0.00000000       0.00000000       0.00000000       0.00000000       0.00000000
H        0.00000000       3.24026883      20.00000000        3       1.00000000       0.00000000       0.00000000       0.00000000       0.00000000       0.00000000       0.00000000
H        2.80615512       3.24026883      20.00000000        3       1.00000000       0.00000000       0.00000000       0.00000000       0.00000000       0.00000000       0.00000000
H        0.00000000       1.62013441      22.29121606        2       1.00000000       0.00000000       0.00000000       0.00000000       0.00000000       0.00000000       0.00000000
H        2.80615512       1.62013441      22.29121606        2       1.00000000       0.00000000       0.00000000       0.00000000       0.00000000       0.00000000       0.00000000
H        1.40307756       4.05033604      22.29121606        2       1.00000000       0.00000000       0.00000000       0.00000000       0.00000000       0.00000000       0.00000000
H        4.20923268       4.05033604      22.29121606        2       1.00000000       0.00000000       0.00000000       0.00000000       0.00000000       0.00000000       0.00000000
H        0.00000000       0.00000000      24.58243212        1       1.00000000       0.00000000       0.00000000       0.00000000       0.00000000       0.00000000       0.00000000
H        2.80615512       0.00000000      24.58243212        1       1.00000000       0.00000000       0.00000000       0.00000000       0.00000000       0.00000000       0.00000000
H        1.40307756       2.43020162      24.58243212        1       1.00000000       0.00000000       0.00000000       0.00000000       0.00000000       0.00000000       0.00000000
H        4.20923268       2.43020162      24.58243212        1       1.00000000       0.00000000       0.00000000       0.00000000       0.00000000       0.00000000       0.00000000
H       -0.00096188       1.63425627      26.79476818        0       1.00000000      -0.00638163      -0.00357504       0.00693042       0.01536032       0.01345172      -0.01135493
H        1.39361216       0.83219620      29.02310349        0       1.00000000      -0.00802031       0.00040953      -0.00322065      -0.00101401      -0.00417983      -0.01441208
H        4.20873894       4.05348241      26.78781779        0       1.00000000       0.00477873       0.00217631      -0.00200617       0.00217857      -0.02030334      -0.00845590
H        2.79661981       4.85135307      31.22342758        0       1.00000000       0.00723993      -0.00609374       0.00109726       0.00731277       0.00218942      -0.00693366
H        2.80370977       3.23300224      28.99612482        0       1.00000000       0.00176856      -0.00024524      -0.00106907      -0.02968983       0.01707699       0.02853412
H        4.20960648       2.40897793      31.22518170        0       1.00000000       0.01317113      -0.00385471      -0.00140936      -0.00197403      -0.00454448      -0.00332320
H        2.80511250       1.62176767      26.78799665        0       1.00000000      -0.00469461      -0.00670608      -0.00078069       0.00727582      -0.02087899      -0.02205346
H        1.39559047       4.06444711      26.79823161        0       1.00000000      -0.00372337      -0.00049004       0.00294750      -0.01091607       0.00553554       0.00152845
H        4.21091372       0.79653179      28.99551837        0       1.00000000       0.00742597       0.00565825       0.00527944       0.00223245      -0.01359777       0.01900564
H        0.00957296       3.26362735      29.02696748        0       1.00000000       0.00439598      -0.00716883      -0.00022096       0.01875081       0.01102600       0.00397929
22
Lattice="5.612310241546866 0.0 0.0 0.0 4.860403243099165 0.0 0.0 0.0 44.58243212332868" Properties=species:S:1:pos:R:3:tags:I:1:masses:R:1:momenta:R:3:forces:R:3 KEmax=28.4371901128168 iter=100239 volume=1216.1236359717223 set_wall=T ns_energy=-14.783689370275065 last_walked_iter_clone=100060 energy=-14.78386634863254 stress="0.022224385201310974 6.324320941160568e-05 -7.839796834606923e-05 6.324320941160568e-05 0.022212197596870032 6.196617407222893e-05 -7.839796834606923e-05 6.196617407222893e-05 0.009276506301069734" pbc="T T F"
H        1.40307756       0.81006721      20.00000000        3       1.00000000       0.00000000       0.00000000       0.00000000       0.00000000       0.00000000       0.00000000
H        4.20923268       0.81006721      20.00000000        3       1.00000000       0.00000000       0.00000000       0.00000000       0.00000000       0.00000000       0.00000000
H        0.00000000       3.24026883      20.00000000        3       1.00000000       0.00000000       0.00000000       0.00000000       0.00000000       0.00000000       0.00000000
H        2.80615512       3.24026883      20.00000000        3       1.00000000       0.00000000       0.00000000       0.00000000       0.00000000       0.00000000       0.00000000
H        0.00000000       1.62013441      22.29121606        2       1.00000000       0.00000000       0.00000000       0.00000000       0.00000000       0.00000000       0.00000000
H        2.80615512       1.62013441      22.29121606        2       1.00000000       0.00000000       0.00000000       0.00000000       0.00000000       0.00000000       0.00000000
H        1.40307756       4.05033604      22.29121606        2       1.00000000       0.00000000       0.00000000       0.00000000       0.00000000       0.00000000       0.00000000
H        4.20923268       4.05033604      22.29121606        2       1.00000000       0.00000000       0.00000000       0.00000000       0.00000000       0.00000000       0.00000000
H        0.00000000       0.00000000      24.58243212        1       1.00000000       0.00000000       0.00000000       0.00000000       0.00000000       0.00000000       0.00000000
H        2.80615512       0.00000000      24.58243212        1       1.00000000       0.00000000       0.00000000       0.00000000       0.00000000       0.00000000       0.00000000
H        1.40307756       2.43020162      24.58243212        1       1.00000000       0.00000000       0.00000000       0.00000000       0.00000000       0.00000000       0.00000000
H        4.20923268       2.43020162      24.58243212        1       1.00000000       0.00000000       0.00000000       0.00000000       0.00000000       0.00000000       0.00000000
H       -0.00711629       1.62883287      26.79283521        0       1.00000000       0.00469317      -0.00152040      -0.00009641       0.01536032       0.01345172      -0.01135493
H        1.38932442       0.82790718      29.02277328        0       1.00000000      -0.00979197       0.00378728       0.00208660      -0.00101401      -0.00417983      -0.01441208
H        4.21001627       4.04885913      26.79011889        0       1.00000000      -0.00264060      -0.00531287       0.00463454       0.00217857      -0.02030334      -0.00845590
H        2.81147043       4.84217793      31.22166992        0       1.00000000      -0.00503975      -0.01268000      -0.00124055       0.00731277       0.00218942      -0.00693366
H        2.80716384       3.23059585      28.99598313        0       1.00000000      -0.00289097      -0.00912190      -0.00418018      -0.02968983       0.01707699       0.02853412
H        4.22574634       2.40308312      31.21839053        0       1.00000000       0.00237522       0.00307939       0.00528616      -0.00197403      -0.00454448      -0.00332320
H        2.80115376       1.61686835      26.79173555        0       1.00000000      -0.00687320       0.00241169      -0.00030978       0.00727582      -0.02087899      -0.02205346
H        1.40592383       4.06103781      26.79330607        0       1.00000000       0.00054512      -0.00307949      -0.00496605      -0.01091607       0.00553554       0.00152845
H        4.21173965       0.79872273      28.98584213        0       1.00000000       0.00592529      -0.00157698       0.00400509       0.00223245      -0.01359777       0.01900564
H        0.01236748       3.26221280      29.02168172        0       1.00000000       0.00450073      -0.00245289      -0.00247055       0.01875081       0.01102600       0.00397929
22
Lattice="5.612310241546866 0.0 0.0 0.0 4.860403243099165 0.0 0.0 0.0 44.58243212332868" Properties=species:S:1:pos:R:3:tags:I:1:masses:R:1:momenta:R:3:forces:R:3 KEmax=28.4371901128168 iter=100239 volume=1216.1236359717223 set_wall=T ns_energy=-14.783701291769892 last_walked_iter_clone=100181 energy=-14.78386634863254 stress="0.022224385201310974 6.324320941160568e-05 -7.839796834606923e-05 6.324320941160568e-05 0.022212197596870032 6.196617407222893e-05 -7.839796834606923e-05 6.196617407222893e-05 0.009276506301069734" pbc="T T F"
H        1.40307756       0.81006721      20.00000000        3       1.00000000       0.00000000       0.00000000       0.00000000       0.00000000       0.00000000       0.00000000
H        4.20923268       0.81006721      20.00000000        3       1.00000000       0.00000000       0.00000000       0.00000000       0.00000000       0.00000000       0.00000000
H        0.00000000       3.24026883      20.00000000        3       1.00000000       0.00000000       0.00000000       0.00000000       0.00000000       0.00000000       0.00000000
H        2.80615512       3.24026883      20.00000000        3       1.00000000       0.00000000       0.00000000       0.00000000       0.00000000       0.00000000       0.00000000
H        0.00000000       1.62013441      22.29121606        2       1.00000000       0.00000000       0.00000000       0.00000000       0.00000000       0.00000000       0.00000000
H        2.80615512       1.62013441      22.29121606        2       1.00000000       0.00000000       0.00000000       0.00000000       0.00000000       0.00000000       0.00000000
H        1.40307756       4.05033604      22.29121606        2       1.00000000       0.00000000       0.00000000       0.00000000       0.00000000       0.00000000       0.00000000
H        4.20923268       4.05033604      22.29121606        2       1.00000000       0.00000000       0.00000000       0.00000000       0.00000000       0.00000000       0.00000000
H        0.00000000       0.00000000      24.58243212        1       1.00000000       0.00000000       0.00000000       0.00000000       0.00000000       0.00000000       0.00000000
H        2.80615512       0.00000000      24.58243212        1       1.00000000       0.00000000       0.00000000       0.00000000       0.00000000       0.00000000       0.00000000
H        1.40307756       2.43020162      24.58243212        1       1.00000000       0.00000000       0.00000000       0.00000000       0.00000000       0.00000000       0.00000000
H        4.20923268       2.43020162      24.58243212        1       1.00000000       0.00000000       0.00000000       0.00000000       0.00000000       0.00000000       0.00000000