22
Lattice="5.612310241546866 0.0 0.0 0.0 4.860403243099165 0.0 0.0 0.0 44.58243212332868" Properties=species:S:1:pos:R:3:tags:I:1:masses:R:1:momenta:R:3:forces:R:3 KEmax=28.4371901128168 iter=71174 volume=1216.1236359717223 set_wall=T ns_energy=-14.76250543846093 last_walked_iter_clone=71022 energy=-14.773912174311667 stress="0.0220282542191275 0.00015342527375142062 -0.0003337861808332404 0.00015342527375142062 0.022648407037180823 0.0006435988565265977 -0.0003337861808332404 0.0006435988565265977 0.009868952897015299" pbc="T T F"
H        1.40307756       0.81006721      20.00000000        3       1.00000000       0.00000000       0.00000000       0.00000000       0.00000000       0.00000000       0.00000000
H        4.20923268       0.81006721      20.00000000        3       1.00000000       0.00000000       0.00000000       0.00000000       0.00000000       0.00000000       0.00000000
H        0.00000000       3.24026883      20.00000000        3       1.00000000       0.00000000       0.00000000       0.00000000       0.00000000       0.00000000       0.00000000
H        2.80615512       3.24026883      20.00000000        3       1.00000000       0.00000000       0.00000000       0.00000000       0.00000000       0.00000000       0.00000000
H        0.00000000       1.62013441      22.29121606        2       1.00000000       0.00000000       0.00000000       0.00000000       0.00000000       0.00000000       0.00000000
H        2.80615512       1.62013441      22.29121606        2       1.00000000       0.00000000       0.00000000       0.00000000       0.00000000       0.00000000       0.00000000
H        1.40307756       4.05033604      22.29121606        2       1.00000000       0.00000000       0.00000000       0.00000000       0.00000000       0.00000000       0.00000000
H        4.20923268       4.05033604      22.29121606        2       1.00000000       0.00000000       0.00000000       0.00000000       0.00000000       0.00000000       0.00000000
H        0.00000000       0.00000000      24.58243212        1       1.00000000       0.00000000       0.00000000       0.00000000       0.00000000       0.00000000       0.00000000
H        2.80615512       0.00000000      24.58243212        1       1.00000000       0.00000000       0.00000000       0.00000000       0.00000000       0.00000000       0.00000000
H        1.40307756       2.43020162      24.58243212        1       1.00000000       0.00000000       0.00000000       0.00000000       0.00000000       0.00000000       0.00000000
H        4.20923268       2.43020162      24.58243212        1       1.00000000       0.00000000       0.00000000       0.00000000       0.00000000       0.00000000       0.00000000
H        5.64468472       1.64764213      26.80552512        0       1.00000000      -0.01792654      -0.01503439      -0.00032304       0.03449264      -0.02738741      -0.06404526
H        1.39431979       0.83085393      29.02313284        0       1.00000000       0.03485277       0.02345435       0.01271355       0.01346226       0.09581514      -0.04771593
H        4.21499208       4.04906092      26.82048539        0       1.00000000      -0.02528948       0.04633880      -0.01489207       0.02151734       0.02875640       0.01527199
H        2.75877633       4.83359157      31.22513091        0       1.00000000      -0.00912187      -0.00015242       0.06296373       0.05432379      -0.01985969      -0.01126575
H        2.78122985       3.22319388      28.98461607        0       1.00000000      -0.00775701       0.03522345      -0.03963831       0.05350671      -0.01085281       0.03764669
H        4.14840252       2.39757995      31.21332806        0       1.00000000       0.00901327       0.04328309      -0.00784608      -0.01744544      -0.01922465      -0.06824305
H        2.82426240       1.62564521      26.78552310        0       1.00000000       0.00318705       0.03959686       0.00519541      -0.03104181      -0.04636441       0.04791055
H        1.41777028       4.10845373      26.78970989        0       1.00000000      -0.02195792       0.00125948      -0.00454648      -0.09962240       0.08087772       0.03891737
H        4.19108440       0.78052281      29.01280991        0       1.00000000      -0.01164207      -0.01490447       0.00874880      -0.08771677      -0.01220096       0.10213725
H        5.61208762       3.22269469      29.03857848        0       1.00000000      -0.00025104      -0.00513629      -0.01555834       0.02556796      -0.07638027      -0.03146187
22
Lattice="5.612310241546866 0.0 0.0 0.0 4.860403243099165 0.0 0.0 0.0 44.58243212332868" Properties=species:S:1:pos:R:3:tags:I:1:masses:R:1:momenta:R:3:forces:R:3 KEmax=28.4371901128168 iter=71174 volume=1216.1236359717223 set_wall=T ns_energy=-14.762516019460877 last_walked_iter_clone=70882 energy=-14.773912174311667 stress="0.0220282542191275 0.00015342527375142062 -0.0003337861808332404 0.00015342527375142062 0.022648407037180823 0.0006435988565265977 -0.0003337861808332404 0.0006435988565265977 0.009868952897015299" pbc="T T F"
H        1.40307756       0.81006721      20.00000000        3       1.00000000       0.00000000       0.00000000       0.00000000       0.00000000       0.00000000       0.00000000
H        4.20923268       0.81006721      20.00000000        3       1.00000000       0.00000000       0.00000000       0.00000000       0.00000000       0.00000000       0.00000000
H        0.00000000       3.24026883      20.00000000        3       1.00000000       0.00000000       0.00000000       0.00000000       0.00000000       0.00000000       0.00000000
H        2.80615512       3.24026883      20.00000000        3       1.00000000       0.00000000       0.00000000       0.00000000       0.00000000       0.00000000       0.00000000
H        0.00000000       1.62013441      22.29121606        2       1.00000000       0.00000000       0.00000000       0.00000000       0.00000000       0.00000000       0.00000000
H        2.80615512       1.62013441      22.29121606        2       1.00000000       0.00000000       0.00000000       0.00000000       0.00000000       0.00000000       0.00000000
H        1.40307756       4.05033604      22.29121606        2       1.00000000       0.00000000       0.00000000       0.00000000       0.00000000       0.00000000       0.00000000
H        4.20923268       4.05033604      22.29121606        2       1.00000000       0.00000000       0.00000000       0.00000000       0.00000000       0.00000000       0.00000000
H        0.00000000       0.00000000      24.58243212        1       1.00000000       0.00000000       0.00000000       0.00000000       0.00000000       0.00000000       0.00000000
H        2.80615512       0.00000000      24.58243212        1       1.00000000       0.00000000       0.00000000       0.00000000       0.00000000       0.00000000       0.00000000
H        1.40307756       2.43020162      24.58243212        1       1.00000000       0.00000000       0.00000000       0.00000000       0.00000000       0.00000000       0.00000000
H        4.20923268       2.43020162      24.58243212        1       1.00000000       0.00000000       0.00000000       0.00000000       0.00000000       0.00000000       0.00000000
H        5.59177607       1.64826855      26.79737315        0       1.00000000      -0.01150846       0.02036942      -0.00031126       0.03449264      -0.02738741      -0.06404526
H        1.38039333       0.85143267      28.99220622        0       1.00000000       0.03032202      -0.00900856      -0.00769868       0.01346226       0.09581514      -0.04771593
H        4.18341920       4.02669881      26.78989096        0       1.00000000       0.00613149       0.02860060       0.03550791       0.02151734       0.02875640       0.01527199
H        2.72967024       4.82312218      31.21631929        0       1.00000000       0.03313549       0.02377608       0.01112227       0.05432379      -0.01985969      -0.01126575
H        2.74393698       3.25519514      28.99480696        0       1.00000000       0.04208071      -0.01294296       0.00436209       0.05350671      -0.01085281       0.03764669
H        4.08819916       2.40412714      31.21391331        0       1.00000000       0.04850420      -0.01352298      -0.00706042      -0.01744544      -0.01922465      -0.06824305
H        2.76775268       1.61310849      26.78474911        0       1.00000000      -0.02309240       0.01883528      -0.00091340      -0.03104181      -0.04636441       0.04791055
H        1.37149462       4.08439295      26.78772158        0       1.00000000       0.00256399      -0.01560494      -0.00028692      -0.09962240       0.08087772       0.03891737
H        4.18618898       0.82895246      29.00777235        0       1.00000000       0.01347733       0.01159125       0.04729902      -0.08771677      -0.01220096       0.10213725
H        5.58247144       3.29722224      29.03161190        0       1.00000000       0.04817335       0.03108678      -0.01218799       0.02556796      -0.07638027      -0.03146187
22
Lattice="5.612310241546866 0.0 0.0 0.0 4.860403243099165 0.0 0.0 0.0 44.58243212332868" Properties=species:S:1:pos:R:3:tags:I:1:masses:R:1:momenta:R:3:forces:R:3 KEmax=28.4371901128168 iter=71174 volume=1216.1236359717223 set_wall=T ns_energy=-14.76225732733714 last_walked_iter_clone=70898 energy=-14.773912174311667 stress="0.0220282542191275 0.00015342527375142062 -0.0003337861808332404 0.00015342527375142062 0.022648407037180823 0.0006435988565265977 -0.0003337861808332404 0.0006435988565265977 0.009868952897015299" pbc="T T F"
H        1.40307756       0.81006721      20.00000000        3       1.00000000       0.00000000       0.00000000       0.00000000       0.00000000       0.00000000       0.00000000
H        4.20923268       0.81006721      20.00000000        3       1.00000000       0.00000000       0.00000000       0.00000000       0.00000000       0.00000000       0.00000000
H        0.00000000       3.24026883      20.00000000        3       1.00000000       0.00000000       0.00000000       0.00000000       0.00000000       0.00000000       0.00000000
H        2.80615512       3.24026883      20.00000000        3       1.00000000       0.00000000       0.00000000       0.00000000       0.00000000       0.00000000       0.00000000
H        0.00000000       1.62013441      22.29121606        2       1.00000000       0.00000000       0.00000000       0.00000000       0.00000000       0.00000000       0.00000000
H        2.80615512       1.62013441      22.29121606        2       1.00000000       0.00000000       0.00000000       0.00000000       0.00000000       0.00000000       0.00000000
H        1.40307756       4.05033604      22.29121606        2       1.00000000       0.00000000       0.00000000       0.00000000       0.00000000       0.00000000       0.00000000
H        4.20923268       4.05033604      22.29121606        2       1.00000000       0.00000000       0.00000000       0.00000000       0.00000000       0.00000000       0.00000000
H        0.00000000       0.00000000      24.58243212        1       1.00000000       0.00000000       0.00000000       0.00000000       0.00000000       0.00000000       0.00000000
H        2.80615512       0.00000000      24.58243212        1       1.00000000       0.00000000       0.00000000       0.00000000       0.00000000       0.00000000       0.00000000
H        1.40307756       2.43020162      24.58243212        1       1.00000000       0.00000000       0.00000000       0.00000000       0.00000000       0.00000000       0.00000000
H        4.20923268       2.43020162      24.58243212        1       1.00000000       0.00000000       0.00000000       0.00000000       0.00000000       0.00000000       0.00000000
H        0.02062546       1.64696923      26.81882909        0       1.00000000      -0.01579549       0.01949573      -0.00851155       0.03449264      -0.02738741      -0.06404526
H        1.37387641       0.86701324      29.04527633        0       1.00000000       0.00727261      -0.02230270      -0.01710135       0.01346226       0.09581514      -0.04771593
H        4.22877932       4.07660232      26.79644097        0       1.00000000       0.01468825       0.01418342      -0.02837292       0.02151734       0.02875640       0.01527199
H        2.82207860       0.03921389      31.26816292        0       1.00000000       0.03717080       0.02980830      -0.03792049       0.05432379      -0.01985969      -0.01126575
H        2.78028136       3.27643852      28.98236013        0       1.00000000      -0.01798428      -0.06173434      -0.02914670       0.05350671      -0.01085281       0.03764669
H        4.17735491       2.47119684      31.22086779        0       1.00000000       0.01148545       0.01669458      -0.02776075      -0.01744544      -0.01922465      -0.06824305
H        2.80308596       1.63401171      26.81653322        0       1.00000000       0.00032889      -0.00407195      -0.01781189      -0.03104181      -0.04636441       0.04791055
H        1.39449144       4.08334692      26.79712763        0       1.00000000      -0.05610836       0.00025466      -0.00679340      -0.09962240       0.08087772       0.03891737
H        4.21442510       0.81033812      29.01654287        0       1.00000000       0.01056515      -0.02324381       0.02982388      -0.08771677      -0.01220096       0.10213725
H        5.64071145       3.27570177      29.05871084        0       1.00000000       0.00619061       0.01096367       0.02520297       0.02556796      -0.07638027      -0.03146187
22
Lattice="5.612310241546866 0.0 0.0 0.0 4.860403243099165 0.0 0.0 0.0 44.58243212332868" Properties=species:S:1:pos:R:3:tags:I:1:masses:R:1:momenta:R:3:forces:R:3 KEmax=28.4371901128168 iter=71174 volume=1216.1236359717223 set_wall=T ns_energy=-14.762756544218469 last_walked_iter_clone=70880 energy=-14.773912174311667 stress="0.0220282542191275 0.00015342527375142062 -0.0003337861808332404 0.00015342527375142062 0.022648407037180823 0.0006435988565265977 -0.0003337861808332404 0.0006435988565265977 0.009868952897015299" pbc="T T F"
H        1.40307756       0.81006721      20.00000000        3       1.00000000       0.00000000       0.00000000       0.00000000       0.00000000       0.00000000       0.00000000
H        4.20923268       0.81006721      20.00000000        3       1.00000000       0.00000000       0.00000000       0.00000000       0.00000000       0.00000000       0.00000000
H        0.00000000       3.24026883      20.00000000        3       1.00000000       0.00000000       0.00000000       0.00000000       0.00000000       0.00000000       0.00000000
H        2.80615512       3.24026883      20.00000000        3       1.00000000       0.00000000       0.00000000       0.00000000       0.00000000       0.00000000       0.00000000
H        0.00000000       1.62013441      22.29121606        2       1.00000000       0.00000000       0.00000000       0.00000000       0.00000000       0.00000000       0.00000000
H        2.80615512       1.62013441      22.29121606        2       1.00000000       0.00000000       0.00000000       0.00000000       0.00000000       0.00000000       0.00000000
H        1.40307756       4.05033604      22.29121606        2       1.00000000       0.00000000       0.00000000       0.00000000       0.00000000       0.00000000       0.00000000
H        4.20923268       4.05033604      22.29121606        2       1.00000000       0.00000000       0.00000000       0.00000000       0.00000000       0.00000000       0.00000000
H        0.00000000       0.00000000      24.58243212        1       1.00000000       0.00000000       0.00000000       0.00000000       0.00000000       0.00000000       0.00000000
H        2.80615512       0.00000000      24.58243212        1       1.00000000       0.00000000       0.00000000       0.00000000       0.00000000       0.00000000       0.00000000
H        1.40307756       2.43020162      24.58243212        1       1.00000000       0.00000000       0.00000000       0.00000000       0.00000000       0.00000000       0.00000000
H        4.20923268       2.43020162      24.58243212        1       1.00000000       0.00000000       0.00000000       0.00000000       0.00000000       0.00000000       0.00000000
H        5.63811400       1.61335941      26.83277318        0       1.00000000       0.01254202       0.01670779       0.04026256       0.03449264      -0.02738741      -0.06404526
H        1.39382105       0.83698714      29.09165504        0       1.00000000       0.02725992       0.00799920       0.02557943       0.01346226       0.09581514      -0.04771593
H        4.21649278       4.04279043      26.78654011        0       1.00000000       0.02872569      -0.00313048       0.03241798       0.02151734       0.02875640       0.01527199
H        2.87241497       4.82979025      31.27952162        0       1.00000000       0.01557074      -0.02926491       0.00047981       0.05432379      -0.01985969      -0.01126575
H        2.82782332       3.22421806      29.03507842        0       1.00000000       0.01473298       0.00156739      -0.03594242       0.05350671      -0.01085281       0.03764669
H        4.30529621       2.40469306      31.25009532        0       1.00000000       0.01844970       0.01634746      -0.00371319      -0.01744544      -0.01922465      -0.06824305
H        2.81387723       1.60419890      26.79766864        0       1.00000000       0.02304400       0.01690746       0.02292846      -0.03104181      -0.04636441       0.04791055
H        1.43176593       4.05183328      26.82732908        0       1.00000000      -0.04768313       0.02817730      -0.05344856      -0.09962240       0.08087772       0.03891737
H        4.19086858       0.80469772      29.00350801        0       1.00000000       0.01014304       0.04139779      -0.01328714      -0.08771677      -0.01220096       0.10213725
H        5.63684329       3.26032663      29.04765449        0       1.00000000       0.03317833      -0.02343684      -0.01437579       0.02556796      -0.07638027      -0.03146187
22
Lattice="5.612310241546866 0.0 0.0 0.0 4.860403243099165 0.0 0.0 0.0 44.58243212332868" Properties=species:S:1:pos:R:3:tags:I:1:masses:R:1:momenta:R:3:forces:R:3 KEmax=28.4371901128168 iter=71174 volume=1216.1236359717223 set_wall=T ns_energy=-14.763342382047766 last_walked_iter_clone=71134 energy=-14.773912174311667 stress="0.0220282542191275 0.00015342527375142062 -0.0003337861808332404 0.00015342527375142062 0.022648407037180823 0.0006435988565265977 -0.0003337861808332404 0.0006435988565265977 0.009868952897015299" pbc="T T F"
H        1.40307756       0.81006721      20.00000000        3       1.00000000       0.00000000       0.00000000       0.00000000       0.00000000       0.00000000       0.00000000
H        4.20923268       0.81006721      20.00000000        3       1.00000000       0.00000000       0.00000000       0.00000000       0.00000000       0.00000000       0.00000000
H        0.00000000       3.24026883      20.00000000        3       1.00000000       0.00000000       0.00000000       0.00000000       0.00000000       0.00000000       0.00000000
H        2.80615512       3.24026883      20.00000000        3       1.00000000       0.00000000       0.00000000       0.00000000       0.00000000       0.00000000       0.00000000
H        0.00000000       1.62013441      22.29121606        2       1.00000000       0.00000000       0.00000000       0.00000000       0.00000000       0.00000000       0.00000000
H        2.80615512       1.62013441      22.29121606        2       1.00000000       0.00000000       0.00000000       0.00000000       0.00000000       0.00000000       0.00000000
H        1.40307756       4.05033604      22.29121606        2       1.00000000       0.00000000       0.00000000       0.00000000       0.00000000       0.00000000       0.00000000
H        4.20923268       4.05033604      22.29121606        2       1.00000000       0.00000000       0.00000000       0.00000000       0.00000000       0.00000000       0.00000000
H        0.00000000       0.00000000      24.58243212        1       1.00000000       0.00000000       0.00000000       0.00000000       0.00000000       0.00000000       0.00000000
H        2.80615512       0.00000000      24.58243212        1       1.00000000       0.00000000       0.00000000       0.00000000       0.00000000       0.00000000       0.00000000
H        1.40307756       2.43020162      24.58243212        1       1.00000000       0.00000000       0.00000000       0.00000000       0.00000000       0.00000000       0.00000000
H        4.20923268       2.43020162      24.58243212        1       1.00000000       0.00000000       0.00000000       0.00000000       0.00000000       0.00000000       0.00000000
H        5.62490836       1.64158539      26.78913214        0       1.00000000       0.03375629       0.03397467       0.04115155       0.03449264      -0.02738741      -0.06404526
H        1.38127452       0.86609871      29.04747933        0       1.00000000       0.02451729      -0.00604410      -0.00840428       0.01346226       0.09581514      -0.04771593
H        4.21544084       4.04947534      26.78112922        0       1.00000000       0.00327218      -0.03708177       0.00677055       0.02151734       0.02875640       0.01527199
H        2.80684906      -0.00052502      31.22263572        0       1.00000000      -0.02528590      -0.03967832       0.03938274       0.05432379      -0.01985969      -0.01126575
H        2.76951358       3.24617529      29.02028135        0       1.00000000      -0.03134855      -0.01603303       0.00173289       0.05350671      -0.01085281       0.03764669
H        4.21980694       2.44373209      31.19431661        0       1.00000000       0.05537630      -0.00005544      -0.04857862      -0.01744544      -0.01922465      -0.06824305
H        2.81053509       1.62872078      26.78917168        0       1.00000000       0.02252371       0.02351912       0.01454615      -0.03104181      -0.04636441       0.04791055
H        1.38320571       4.08057148      26.78334204        0       1.00000000       0.01631196       0.00755013       0.03416842      -0.09962240       0.08087772       0.03891737
H        4.19781245       0.81518568      28.96871307        0       1.00000000      -0.00182230      -0.01120177       0.02231696      -0.08771677      -0.01220096       0.10213725
H        0.00065978       3.27225612      29.00446840        0       1.00000000      -0.03934400      -0.02305852      -0.05318413       0.02556796      -0.07638027      -0.03146187
22
Lattice="5.612310241546866 0.0 0.0 0.0 4.860403243099165 0.0 0.0 0.0 44.58243212332868" Properties=species:S:1:pos:R:3:tags:I:1:masses:R:1:momenta:R:3:forces:R:3 KEmax=28.4371901128168 iter=71174 volume=1216.1236359717223 set_wall=T ns_energy=-14.762286737751861 last_walked_iter_clone=70686 energy=-14.773912174311667 stress="0.0220282542191275 0.00015342527375142062 -0.0003337861808332404 0.00015342527375142062 0.022648407037180823 0.0006435988565265977 -0.0003337861808332404 0.0006435988565265977 0.009868952897015299" pbc="T T F"
H        1.40307756       0.81006721      20.00000000        3       1.00000000       0.00000000       0.00000000       0.00000000       0.00000000       0.00000000       0.00000000
H        4.20923268       0.81006721      20.00000000        3       1.00000000       0.00000000       0.00000000       0.00000000       0.00000000       0.00000000       0.00000000
H        0.00000000       3.24026883      20.00000000        3       1.00000000       0.00000000       0.00000000       0.00000000       0.00000000       0.00000000       0.00000000
H        2.80615512       3.24026883      20.00000000        3       1.00000000       0.00000000       0.00000000       0.00000000       0.00000000       0.00000000       0.00000000
H        0.00000000       1.62013441      22.29121606        2       1.00000000       0.00000000       0.00000000       0.00000000       0.00000000       0.00000000       0.00000000
H        2.80615512       1.62013441      22.29121606        2       1.00000000       0.00000000       0.00000000       0.00000000       0.00000000       0.00000000       0.00000000
H        1.40307756       4.05033604      22.29121606        2       1.00000000       0.00000000       0.00000000       0.00000000       0.00000000       0.00000000       0.00000000
H        4.20923268       4.05033604      22.29121606        2       1.00000000       0.00000000       0.00000000       0.00000000       0.00000000       0.00000000       0.00000000
H        0.00000000       0.00000000      24.58243212        1       1.00000000       0.00000000       0.00000000       0.00000000       0.00000000       0.00000000       0.00000000
H        2.80615512       0.00000000      24.58243212        1       1.00000000       0.00000000       0.00000000       0.00000000       0.00000000       0.00000000       0.00000000
H        1.40307756       2.43020162      24.58243212        1       1.00000000       0.00000000       0.00000000       0.00000000       0.00000000       0.00000000       0.00000000
H        4.20923268       2.43020162      24.58243212        1       1.00000000       0.00000000       0.00000000       0.00000000       0.00000000       0.00000000       0.00000000
H        5.58880780       1.66844942      26.80270777        0       1.00000000      -0.04027790       0.02149970       0.01627968       0.03449264      -0.02738741      -0.06404526
H        1.34450844       0.84214689      29.02853875        0       1.00000000       0.02215873       0.02959037       0.00653683       0.01346226       0.09581514      -0.04771593
H        4.19663050       4.07423570      26.80885248        0       1.00000000      -0.00639155      -0.02296646      -0.05723632       0.02151734       0.02875640       0.01527199
H        2.77938929      -0.02142620      31.23577845        0       1.00000000      -0.05465866      -0.03303935      -0.02345199       0.05432379      -0.01985969      -0.01126575
H        2.77182621       3.22808573      29.00288871        0       1.00000000       0.00950099       0.04088629       0.00189110       0.05350671      -0.01085281       0.03764669
H        4.18152950       2.41034446      31.27582535        0       1.00000000       0.01184018       0.01778728      -0.01208064      -0.01744544      -0.01922465      -0.06824305
H        2.75990210       1.63990961      26.80386114        0       1.00000000       0.02361611      -0.02359173       0.00528638      -0.03104181      -0.04636441       0.04791055
H        1.39339008       4.09788484      26.81996763        0       1.00000000      -0.02052170       0.04586017      -0.00747993      -0.09962240       0.08087772       0.03891737
H        4.17034331       0.81840171      29.00036659        0       1.00000000       0.01017840       0.01295226       0.06578947      -0.08771677      -0.01220096       0.10213725
H        5.59921562       3.29553221      29.05023387        0       1.00000000      -0.00971554      -0.00624042      -0.01504091       0.02556796      -0.07638027      -0.03146187
22
Lattice="5.612310241546866 0.0 0.0 0.0 4.860403243099165 0.0 0.0 0.0 44.58243212332868" Properties=species:S:1:pos:R:3:tags:I:1:masses:R:1:momenta:R:3:forces:R:3 KEmax=28.4371901128168 iter=71174 volume=1216.1236359717223 set_wall=T ns_energy=-14.762426153649931 last_walked_iter_clone=70947 energy=-14.773912174311667 stress="0.0220282542191275 0.00015342527375142062 -0.0003337861808332404 0.00015342527375142062 0.022648407037180823 0.0006435988565265977 -0.0003337861808332404 0.0006435988565265977 0.009868952897015299" pbc="T T F"
H        1.40307756       0.81006721      20.00000000        3       1.00000000       0.00000000       0.00000000       0.00000000       0.00000000       0.00000000       0.00000000
H        4.20923268       0.81006721      20.00000000        3       1.00000000       0.00000000       0.00000000       0.00000000       0.00000000       0.00000000       0.00000000
H        0.00000000       3.24026883      20.00000000        3       1.00000000       0.00000000       0.00000000       0.00000000       0.00000000       0.00000000       0.00000000
H        2.80615512       3.24026883      20.00000000        3       1.00000000       0.00000000       0.00000000       0.00000000       0.00000000       0.00000000       0.00000000
H        0.00000000       1.62013441      22.29121606        2       1.00000000       0.00000000       0.00000000       0.00000000       0.00000000       0.00000000       0.00000000
H        2.80615512       1.62013441      22.29121606        2       1.00000000       0.00000000       0.00000000       0.00000000       0.00000000       0.00000000       0.00000000
H        1.40307756       4.05033604      22.29121606        2       1.00000000       0.00000000       0.00000000       0.00000000       0.00000000       0.00000000       0.00000000
H        4.20923268       4.05033604      22.29121606        2       1.00000000       0.00000000       0.00000000       0.00000000       0.00000000       0.00000000       0.00000000
H        0.00000000       0.00000000      24.58243212        1       1.00000000       0.00000000       0.00000000       0.00000000       0.00000000       0.00000000       0.00000000
H        2.80615512       0.00000000      24.58243212        1       1.00000000       0.00000000       0.00000000       0.00000000       0.00000000       0.00000000       0.00000000
H        1.40307756       2.43020162      24.58243212        1       1.00000000       0.00000000       0.00000000       0.00000000       0.00000000       0.00000000       0.00000000
H        4.20923268       2.43020162      24.58243212        1       1.00000000       0.00000000       0.00000000       0.00000000       0.00000000       0.00000000       0.00000000