22
Lattice="5.612310241546866 0.0 0.0 0.0 4.860403243099165 0.0 0.0 0.0 44.58243212332868" Properties=species:S:1:pos:R:3:tags:I:1:masses:R:1:momenta:R:3:forces:R:3 KEmax=28.4371901128168 iter=37688 volume=1216.1236359717223 set_wall=T ns_energy=-13.916233630619592 last_walked_iter_clone=37373 energy=-14.268223402412977 stress="0.019263583424288633 -0.0017485800247773857 -0.0034497811456715593 -0.0017485800247773857 0.015354369704069117 -0.0036292434030039873 -0.0034497811456715593 -0.0036292434030039873 0.008740191058578966" pbc="T T F"
H        1.40307756       0.81006721      20.00000000        3       1.00000000       0.00000000       0.00000000       0.00000000       0.00000000       0.00000000       0.00000000
H        4.20923268       0.81006721      20.00000000        3       1.00000000       0.00000000       0.00000000       0.00000000       0.00000000       0.00000000       0.00000000
H        0.00000000       3.24026883      20.00000000        3       1.00000000       0.00000000       0.00000000       0.00000000       0.00000000       0.00000000       0.00000000
H        2.80615512       3.24026883      20.00000000        3       1.00000000       0.00000000       0.00000000       0.00000000       0.00000000       0.00000000       0.00000000
H        0.00000000       1.62013441      22.29121606        2       1.00000000       0.00000000       0.00000000       0.00000000       0.00000000       0.00000000       0.00000000
H        2.80615512       1.62013441      22.29121606        2       1.00000000       0.00000000       0.00000000       0.00000000       0.00000000       0.00000000       0.00000000
H        1.40307756       4.05033604      22.29121606        2       1.00000000       0.00000000       0.00000000       0.00000000       0.00000000       0.00000000       0.00000000
H        4.20923268       4.05033604      22.29121606        2       1.00000000       0.00000000       0.00000000       0.00000000       0.00000000       0.00000000       0.00000000
H        0.00000000       0.00000000      24.58243212        1       1.00000000       0.00000000       0.00000000       0.00000000       0.00000000       0.00000000       0.00000000
H        2.80615512       0.00000000      24.58243212        1       1.00000000       0.00000000       0.00000000       0.00000000       0.00000000       0.00000000       0.00000000
H        1.40307756       2.43020162      24.58243212        1       1.00000000       0.00000000       0.00000000       0.00000000       0.00000000       0.00000000       0.00000000
H        4.20923268       2.43020162      24.58243212        1       1.00000000       0.00000000       0.00000000       0.00000000       0.00000000       0.00000000       0.00000000
H        0.23526124       4.53539952      29.03168837        0       1.00000000      -0.20953700      -0.07150256      -0.22082962      -0.19410364      -0.04513660      -0.12280146
H        2.90960237       1.61355290      26.81482461        0       1.00000000       0.04316809       0.08771492      -0.02618053      -0.24494849      -0.41361706       0.00146108
H        1.48720990       3.91720441      26.73432854        0       1.00000000      -0.30291270      -0.16889241      -0.21702639       0.59103194      -0.66749913      -0.09403041
H        1.87838979       0.76811727      31.42184335        0       1.00000000       0.03588639      -0.20164193       0.10108566       0.08741417       0.42960917       0.89150821
H        4.50935506       0.34450829      31.24450770        0       1.00000000       0.24909195      -0.06578145      -0.23830069       0.18125724       0.16640061      -0.07227703
H        5.64712058       1.65738091      26.69086919        0       1.00000000       0.36403236      -0.03626017       0.17288088      -0.16037322       0.68878902      -0.23183053
H        3.01004036       4.67102118      29.03297603        0       1.00000000       0.11391375      -0.00891826      -0.03478677      -0.18778070      -0.84804294      -1.32146961
H        4.37220752       2.22567410      29.13866226        0       1.00000000       0.19429838       0.02286352       0.08002549       0.15075796      -0.03892945       0.50969806
H        1.48790304       2.12803351      29.12795045        0       1.00000000      -0.06416517       0.06253729      -0.21408366       0.01427445       0.44412805      -0.18672816
H        4.29578761       4.12966916      27.03551885        0       1.00000000      -0.07146910      -0.02218147      -0.18492661      -0.08477485       0.11708211       0.19188024
22
Lattice="5.612310241546866 0.0 0.0 0.0 4.860403243099165 0.0 0.0 0.0 44.58243212332868" Properties=species:S:1:pos:R:3:tags:I:1:masses:R:1:momenta:R:3:forces:R:3 KEmax=28.4371901128168 iter=37688 volume=1216.1236359717223 set_wall=T ns_energy=-13.915568707834145 last_walked_iter_clone=37298 energy=-14.268223402412977 stress="0.019263583424288633 -0.0017485800247773857 -0.0034497811456715593 -0.0017485800247773857 0.015354369704069117 -0.0036292434030039873 -0.0034497811456715593 -0.0036292434030039873 0.008740191058578966" pbc="T T F"
H        1.40307756       0.81006721      20.00000000        3       1.00000000       0.00000000       0.00000000       0.00000000       0.00000000       0.00000000       0.00000000
H        4.20923268       0.81006721      20.00000000        3       1.00000000       0.00000000       0.00000000       0.00000000       0.00000000       0.00000000       0.00000000
H        0.00000000       3.24026883      20.00000000        3       1.00000000       0.00000000       0.00000000       0.00000000       0.00000000       0.00000000       0.00000000
H        2.80615512       3.24026883      20.00000000        3       1.00000000       0.00000000       0.00000000       0.00000000       0.00000000       0.00000000       0.00000000
H        0.00000000       1.62013441      22.29121606        2       1.00000000       0.00000000       0.00000000       0.00000000       0.00000000       0.00000000       0.00000000
H        2.80615512       1.62013441      22.29121606        2       1.00000000       0.00000000       0.00000000       0.00000000       0.00000000       0.00000000       0.00000000
H        1.40307756       4.05033604      22.29121606        2       1.00000000       0.00000000       0.00000000       0.00000000       0.00000000       0.00000000       0.00000000
H        4.20923268       4.05033604      22.29121606        2       1.00000000       0.00000000       0.00000000       0.00000000       0.00000000       0.00000000       0.00000000
H        0.00000000       0.00000000      24.58243212        1       1.00000000       0.00000000       0.00000000       0.00000000       0.00000000       0.00000000       0.00000000
H        2.80615512       0.00000000      24.58243212        1       1.00000000       0.00000000       0.00000000       0.00000000       0.00000000       0.00000000       0.00000000
H        1.40307756       2.43020162      24.58243212        1       1.00000000       0.00000000       0.00000000       0.00000000       0.00000000       0.00000000       0.00000000
H        4.20923268       2.43020162      24.58243212        1       1.00000000       0.00000000       0.00000000       0.00000000       0.00000000       0.00000000       0.00000000
H        5.56261624       5.01984961      28.97346104        0       1.00000000       0.08351528       0.10392095      -0.13010015      -0.19410364      -0.04513660      -0.12280146
H        4.12081015       2.53349207      29.13803598        0       1.00000000      -0.04461682      -0.13161284       0.38614614      -0.24494849      -0.41361706       0.00146108
H        1.49039740       2.31813803      29.03863440        0       1.00000000       0.34559457       0.20723156      -0.06857664       0.59103194      -0.66749913      -0.09403041
H        2.72204737       1.80132146      26.75764414        0       1.00000000      -0.12566740       0.01954002       0.00248525       0.08741417       0.42960917       0.89150821
H        1.26261368       4.15821258      26.81140699        0       1.00000000      -0.03959783       0.05294005      -0.11261728       0.18125724       0.16640061      -0.07227703
H        1.15199532       0.47695828      31.16046731        0       1.00000000      -0.08198667       0.25033920      -0.22852480      -0.16037322       0.68878902      -0.23183053
H        2.84057496       4.95933324      28.97948752        0       1.00000000       0.33938580       0.09281532       0.01280678      -0.18778070      -0.84804294      -1.32146961
H        4.07406530       4.31716785      26.82861300        0       1.00000000      -0.18430455       0.01371295      -0.03626254       0.15075796      -0.03892945       0.50969806
H        5.56721679       1.74788447      26.90453682        0       1.00000000       0.11913569      -0.42356625      -0.00580660       0.01427445       0.44412805      -0.18672816
H        4.07995785       0.26444943      31.40338724        0       1.00000000      -0.03525276       0.00796967       0.07248364      -0.08477485       0.11708211       0.19188024
22
Lattice="5.612310241546866 0.0 0.0 0.0 4.860403243099165 0.0 0.0 0.0 44.58243212332868" Properties=species:S:1:pos:R:3:tags:I:1:masses:R:1:momenta:R:3:forces:R:3 KEmax=28.4371901128168 iter=37688 volume=1216.1236359717223 set_wall=T ns_energy=-13.93387215959665 last_walked_iter_clone=37480 energy=-14.268223402412977 stress="0.019263583424288633 -0.0017485800247773857 -0.0034497811456715593 -0.0017485800247773857 0.015354369704069117 -0.0036292434030039873 -0.0034497811456715593 -0.0036292434030039873 0.008740191058578966" pbc="T T F"
H        1.40307756       0.81006721      20.00000000        3       1.00000000       0.00000000       0.00000000       0.00000000       0.00000000       0.00000000       0.00000000
H        4.20923268       0.81006721      20.00000000        3       1.00000000       0.00000000       0.00000000       0.00000000       0.00000000       0.00000000       0.00000000
H        0.00000000       3.24026883      20.00000000        3       1.00000000       0.00000000       0.00000000       0.00000000       0.00000000       0.00000000       0.00000000
H        2.80615512       3.24026883      20.00000000        3       1.00000000       0.00000000       0.00000000       0.00000000       0.00000000       0.00000000       0.00000000
H        0.00000000       1.62013441      22.29121606        2       1.00000000       0.00000000       0.00000000       0.00000000       0.00000000       0.00000000       0.00000000
H        2.80615512       1.62013441      22.29121606        2       1.00000000       0.00000000       0.00000000       0.00000000       0.00000000       0.00000000       0.00000000
H        1.40307756       4.05033604      22.29121606        2       1.00000000       0.00000000       0.00000000       0.00000000       0.00000000       0.00000000       0.00000000
H        4.20923268       4.05033604      22.29121606        2       1.00000000       0.00000000       0.00000000       0.00000000       0.00000000       0.00000000       0.00000000
H        0.00000000       0.00000000      24.58243212        1       1.00000000       0.00000000       0.00000000       0.00000000       0.00000000       0.00000000       0.00000000
H        2.80615512       0.00000000      24.58243212        1       1.00000000       0.00000000       0.00000000       0.00000000       0.00000000       0.00000000       0.00000000
H        1.40307756       2.43020162      24.58243212        1       1.00000000       0.00000000       0.00000000       0.00000000       0.00000000       0.00000000       0.00000000
H        4.20923268       2.43020162      24.58243212        1       1.00000000       0.00000000       0.00000000       0.00000000       0.00000000       0.00000000       0.00000000
H        5.65570556       0.08332887      29.14798236        0       1.00000000       0.14562161      -0.18283940       0.22618212      -0.19410364      -0.04513660      -0.12280146
H        2.68879473       2.36369227      31.54112035        0       1.00000000       0.05572448       0.01693450       0.38405537      -0.24494849      -0.41361706       0.00146108
H        5.60803102       3.12311346      26.82225957        0       1.00000000       0.17767524       0.24068871      -0.15702929       0.59103194      -0.66749913      -0.09403041
H        4.09833971       2.55459281      29.29252794        0       1.00000000       0.14974962       0.23123941       0.19730040       0.08741417       0.42960917       0.89150821
H        4.31221465       0.63165818      26.81538644        0       1.00000000      -0.04482066      -0.11650554      -0.09275953       0.18125724       0.16640061      -0.07227703
H        2.78561392       4.97901584      29.23903556        0       1.00000000       0.19811652       0.19937128       0.19038830      -0.16037322       0.68878902      -0.23183053
H        1.32638282       2.55295938      29.24005584        0       1.00000000       0.13305145       0.14859485       0.11826707      -0.18778070      -0.84804294      -1.32146961
H        1.45726412       0.80292699      26.68339307        0       1.00000000      -0.06097258       0.17180752       0.13325640       0.15075796      -0.03892945       0.50969806
H        2.68938428       3.10690741      26.75716256        0       1.00000000      -0.06035463       0.15470676      -0.07665573       0.01427445       0.44412805      -0.18672816
H        5.41911447       1.71166910      31.45980317        0       1.00000000       0.00656348      -0.00170628      -0.27715912      -0.08477485       0.11708211       0.19188024
22
Lattice="5.612310241546866 0.0 0.0 0.0 4.860403243099165 0.0 0.0 0.0 44.58243212332868" Properties=species:S:1:pos:R:3:tags:I:1:masses:R:1:momenta:R:3:forces:R:3 KEmax=28.4371901128168 iter=37688 volume=1216.1236359717223 set_wall=T ns_energy=-13.921347225927455 last_walked_iter_clone=37427 energy=-14.268223402412977 stress="0.019263583424288633 -0.0017485800247773857 -0.0034497811456715593 -0.0017485800247773857 0.015354369704069117 -0.0036292434030039873 -0.0034497811456715593 -0.0036292434030039873 0.008740191058578966" pbc="T T F"
H        1.40307756       0.81006721      20.00000000        3       1.00000000       0.00000000       0.00000000       0.00000000       0.00000000       0.00000000       0.00000000
H        4.20923268       0.81006721      20.00000000        3       1.00000000       0.00000000       0.00000000       0.00000000       0.00000000       0.00000000       0.00000000
H        0.00000000       3.24026883      20.00000000        3       1.00000000       0.00000000       0.00000000       0.00000000       0.00000000       0.00000000       0.00000000
H        2.80615512       3.24026883      20.00000000        3       1.00000000       0.00000000       0.00000000       0.00000000       0.00000000       0.00000000       0.00000000
H        0.00000000       1.62013441      22.29121606        2       1.00000000       0.00000000       0.00000000       0.00000000       0.00000000       0.00000000       0.00000000
H        2.80615512       1.62013441      22.29121606        2       1.00000000       0.00000000       0.00000000       0.00000000       0.00000000       0.00000000       0.00000000
H        1.40307756       4.05033604      22.29121606        2       1.00000000       0.00000000       0.00000000       0.00000000       0.00000000       0.00000000       0.00000000
H        4.20923268       4.05033604      22.29121606        2       1.00000000       0.00000000       0.00000000       0.00000000       0.00000000       0.00000000       0.00000000
H        0.00000000       0.00000000      24.58243212        1       1.00000000       0.00000000       0.00000000       0.00000000       0.00000000       0.00000000       0.00000000
H        2.80615512       0.00000000      24.58243212        1       1.00000000       0.00000000       0.00000000       0.00000000       0.00000000       0.00000000       0.00000000
H        1.40307756       2.43020162      24.58243212        1       1.00000000       0.00000000       0.00000000       0.00000000       0.00000000       0.00000000       0.00000000
H        4.20923268       2.43020162      24.58243212        1       1.00000000       0.00000000       0.00000000       0.00000000       0.00000000       0.00000000       0.00000000
H        1.40639873       2.71088549      29.57507489        0       1.00000000      -0.40464799       0.30278782      -0.01868765      -0.19410364      -0.04513660      -0.12280146
H        1.47841540       0.92856250      26.87460367        0       1.00000000       0.08397704       0.14433112       0.04660792      -0.24494849      -0.41361706       0.00146108
H        0.13105720       3.20893372      27.02237663        0       1.00000000      -0.00048382       0.04540457      -0.23287331       0.59103194      -0.66749913      -0.09403041
H        1.47677564       0.36766553      31.52441947        0       1.00000000       0.23427680       0.19510410      -0.19298173       0.08741417       0.42960917       0.89150821
H        4.30398643       0.77047530      31.45611644        0       1.00000000       0.14795788      -0.08864895      -0.09984613       0.18125724       0.16640061      -0.07227703
H        4.22600263       0.94137787      26.73361853        0       1.00000000      -0.23074846      -0.01692287       0.11814304      -0.16037322       0.68878902      -0.23183053
H        4.33439020       2.71865958      29.35744375        0       1.00000000       0.12586424       0.26345331      -0.07088010      -0.18778070      -0.84804294      -1.32146961
H        5.66073158       0.26006075      29.03124089        0       1.00000000       0.12091788      -0.23802645       0.17362340       0.15075796      -0.03892945       0.50969806
H        2.91018936       0.34753814      29.29190114        0       1.00000000       0.35421686      -0.06813403      -0.05179642       0.01427445       0.44412805      -0.18672816
H        2.84826327       3.38436235      26.88412715        0       1.00000000      -0.20933933       0.11054882      -0.07447609      -0.08477485       0.11708211       0.19188024
22
Lattice="5.612310241546866 0.0 0.0 0.0 4.860403243099165 0.0 0.0 0.0 44.58243212332868" Properties=species:S:1:pos:R:3:tags:I:1:masses:R:1:momenta:R:3:forces:R:3 KEmax=28.4371901128168 iter=37688 volume=1216.1236359717223 set_wall=T ns_energy=-13.957694529212956 last_walked_iter_clone=37543 energy=-14.268223402412977 stress="0.019263583424288633 -0.0017485800247773857 -0.0034497811456715593 -0.0017485800247773857 0.015354369704069117 -0.0036292434030039873 -0.0034497811456715593 -0.0036292434030039873 0.008740191058578966" pbc="T T F"
H        1.40307756       0.81006721      20.00000000        3       1.00000000       0.00000000       0.00000000       0.00000000       0.00000000       0.00000000       0.00000000
H        4.20923268       0.81006721      20.00000000        3       1.00000000       0.00000000       0.00000000       0.00000000       0.00000000       0.00000000       0.00000000
H        0.00000000       3.24026883      20.00000000        3       1.00000000       0.00000000       0.00000000       0.00000000       0.00000000       0.00000000       0.00000000
H        2.80615512       3.24026883      20.00000000        3       1.00000000       0.00000000       0.00000000       0.00000000       0.00000000       0.00000000       0.00000000
H        0.00000000       1.62013441      22.29121606        2       1.00000000       0.00000000       0.00000000       0.00000000       0.00000000       0.00000000       0.00000000
H        2.80615512       1.62013441      22.29121606        2       1.00000000       0.00000000       0.00000000       0.00000000       0.00000000       0.00000000       0.00000000
H        1.40307756       4.05033604      22.29121606        2       1.00000000       0.00000000       0.00000000       0.00000000       0.00000000       0.00000000       0.00000000
H        4.20923268       4.05033604      22.29121606        2       1.00000000       0.00000000       0.00000000       0.00000000       0.00000000       0.00000000       0.00000000
H        0.00000000       0.00000000      24.58243212        1       1.00000000       0.00000000       0.00000000       0.00000000       0.00000000       0.00000000       0.00000000
H        2.80615512       0.00000000      24.58243212        1       1.00000000       0.00000000       0.00000000       0.00000000       0.00000000       0.00000000       0.00000000
H        1.40307756       2.43020162      24.58243212        1       1.00000000       0.00000000       0.00000000       0.00000000       0.00000000       0.00000000       0.00000000
H        4.20923268       2.43020162      24.58243212        1       1.00000000       0.00000000       0.00000000       0.00000000       0.00000000       0.00000000       0.00000000
H        5.43822919       3.36334606      28.95914759        0       1.00000000       0.05058883      -0.07925053      -0.17074909      -0.19410364      -0.04513660      -0.12280146
H        4.05730172       0.97630648      29.36488099        0       1.00000000       0.00522184      -0.14110738       0.06619759      -0.24494849      -0.41361706       0.00146108
H        1.34416275       0.91976236      29.14552745        0       1.00000000      -0.04227145       0.17898484       0.07064598       0.59103194      -0.66749913      -0.09403041
H        2.85881087       1.71060696      26.90983341        0       1.00000000       0.04498572       0.25047687       0.50027178       0.08741417       0.42960917       0.89150821
H        1.49479470       4.12022167      26.69514462        0       1.00000000      -0.32720537      -0.06559942       0.11257068       0.18125724       0.16640061      -0.07227703
H        3.93458360       4.36311290      31.60169141        0       1.00000000       0.12900032       0.24691143      -0.24913337      -0.16037322       0.68878902      -0.23183053
H        2.67117153       3.33561759      29.06571750        0       1.00000000      -0.02104061       0.22611635       0.16958890      -0.18778070      -0.84804294      -1.32146961
H        4.24587137       4.21966709      26.83912375        0       1.00000000      -0.12266394       0.19945873      -0.25380810       0.15075796      -0.03892945       0.50969806
H        5.70667750       1.69136446      26.76236025        0       1.00000000       0.10398130       0.10572230       0.03489096       0.01427445       0.44412805      -0.18672816
H        1.00799648       4.04806912      31.42599441        0       1.00000000      -0.18092643      -0.00508937       0.25278335      -0.08477485       0.11708211       0.19188024
22
Lattice="5.612310241546866 0.0 0.0 0.0 4.860403243099165 0.0 0.0 0.0 44.58243212332868" Properties=species:S:1:pos:R:3:tags:I:1:masses:R:1:momenta:R:3:forces:R:3 KEmax=28.4371901128168 iter=37688 volume=1216.1236359717223 set_wall=T ns_energy=-13.943325833371725 last_walked_iter_clone=37687 energy=-14.268223402412977 stress="0.019263583424288633 -0.0017485800247773857 -0.0034497811456715593 -0.0017485800247773857 0.015354369704069117 -0.0036292434030039873 -0.0034497811456715593 -0.0036292434030039873 0.008740191058578966" pbc="T T F"
H        1.40307756       0.81006721      20.00000000        3       1.00000000       0.00000000       0.00000000       0.00000000       0.00000000       0.00000000       0.00000000
H        4.20923268       0.81006721      20.00000000        3       1.00000000       0.00000000       0.00000000       0.00000000       0.00000000       0.00000000       0.00000000
H        0.00000000       3.24026883      20.00000000        3       1.00000000       0.00000000       0.00000000       0.00000000       0.00000000       0.00000000       0.00000000
H        2.80615512       3.24026883      20.00000000        3       1.00000000       0.00000000       0.00000000       0.00000000       0.00000000       0.00000000       0.00000000
H        0.00000000       1.62013441      22.29121606        2       1.00000000       0.00000000       0.00000000       0.00000000       0.00000000       0.00000000       0.00000000
H        2.80615512       1.62013441      22.29121606        2       1.00000000       0.00000000       0.00000000       0.00000000       0.00000000       0.00000000       0.00000000
H        1.40307756       4.05033604      22.29121606        2       1.00000000       0.00000000       0.00000000       0.00000000       0.00000000       0.00000000       0.00000000
H        4.20923268       4.05033604      22.29121606        2       1.00000000       0.00000000       0.00000000       0.00000000       0.00000000       0.00000000       0.00000000
H        0.00000000       0.00000000      24.58243212        1       1.00000000       0.00000000       0.00000000       0.00000000       0.00000000       0.00000000       0.00000000
H        2.80615512       0.00000000      24.58243212        1       1.00000000       0.00000000       0.00000000       0.00000000       0.00000000       0.00000000       0.00000000
H        1.40307756       2.43020162      24.58243212        1       1.00000000       0.00000000       0.00000000       0.00000000       0.00000000       0.00000000       0.00000000
H        4.20923268       2.43020162      24.58243212        1       1.00000000       0.00000000       0.00000000       0.00000000       0.00000000       0.00000000       0.00000000
H        4.13393438       4.03900325      29.48190721        0       1.00000000       0.18355236       0.12235195      -0.08847863      -0.19410364      -0.04513660      -0.12280146
H        4.48887027       1.31368083      31.38002004        0       1.00000000       0.21981255      -0.03695599       0.14558757      -0.24494849      -0.41361706       0.00146108
H        2.76608991       3.25588331      26.76435560        0       1.00000000       0.08560510       0.30808419      -0.11099124       0.59103194      -0.66749913      -0.09403041
H        2.93316318       1.63717273      28.87004286        0       1.00000000       0.19167344      -0.18629531      -0.31431620       0.08741417       0.42960917       0.89150821
H        1.42489217       0.91957673      26.75398226        0       1.00000000       0.22311661       0.05020514      -0.03207496       0.18125724       0.16640061      -0.07227703
H        1.36418533       3.78340243      29.03806539        0       1.00000000      -0.06178254       0.21047554      -0.02761176      -0.16037322       0.68878902      -0.23183053
H       -0.00778530       1.40982851      29.06518718        0       1.00000000      -0.25189983       0.06598073      -0.07407404      -0.18778070      -0.84804294      -1.32146961
H        4.24623415       0.75578862      26.82964095        0       1.00000000       0.23793607      -0.15540382       0.19066549       0.15075796      -0.03892945       0.50969806
H        5.69016158       3.12784184      26.84478859        0       1.00000000       0.03645317      -0.06289948       0.19588432       0.01427445       0.44412805      -0.18672816
H        1.78778000       2.12343088      31.24396517        0       1.00000000      -0.26158117      -0.09842276       0.12947789      -0.08477485       0.11708211       0.19188024
22
Lattice="5.612310241546866 0.0 0.0 0.0 4.860403243099165 0.0 0.0 0.0 44.58243212332868" Properties=species:S:1:pos:R:3:tags:I:1:masses:R:1:momenta:R:3:forces:R:3 KEmax=28.4371901128168 iter=37688 volume=1216.1236359717223 set_wall=T ns_energy=-13.916286383551347 last_walked_iter_clone=37108 energy=-14.268223402412977 stress="0.019263583424288633 -0.0017485800247773857 -0.0034497811456715593 -0.0017485800247773857 0.015354369704069117 -0.0036292434030039873 -0.0034497811456715593 -0.0036292434030039873 0.008740191058578966" pbc="T T F"
H        1.40307756       0.81006721      20.00000000        3       1.00000000       0.00000000       0.00000000       0.00000000       0.00000000       0.00000000       0.00000000
H        4.20923268       0.81006721      20.00000000        3       1.00000000       0.00000000       0.00000000       0.00000000       0.00000000       0.00000000       0.00000000
H        0.00000000       3.24026883      20.00000000        3       1.00000000       0.00000000       0.00000000       0.00000000       0.00000000       0.00000000       0.00000000
H        2.80615512       3.24026883      20.00000000        3       1.00000000       0.00000000       0.00000000       0.00000000       0.00000000       0.00000000       0.00000000
H        0.00000000       1.62013441      22.29121606        2       1.00000000       0.00000000       0.00000000       0.00000000       0.00000000       0.00000000       0.00000000
H        2.80615512       1.62013441      22.29121606        2       1.00000000       0.00000000       0.00000000       0.00000000       0.00000000       0.00000000       0.00000000
H        1.40307756       4.05033604      22.29121606        2       1.00000000       0.00000000       0.00000000       0.00000000       0.00000000       0.00000000       0.00000000
H        4.20923268       4.05033604      22.29121606        2       1.00000000       0.00000000       0.00000000       0.00000000       0.00000000       0.00000000       0.00000000
H        0.00000000       0.00000000      24.58243212        1       1.00000000       0.00000000       0.00000000       0.00000000       0.00000000       0.00000000       0.00000000
H        2.80615512       0.00000000      24.58243212        1       1.00000000       0.00000000       0.00000000       0.00000000       0.00000000       0.00000000       0.00000000
H        1.40307756       2.43020162      24.58243212        1       1.00000000       0.00000000       0.00000000       0.00000000       0.00000000       0.00000000       0.00000000