18
Lattice="5.612310241546866 0.0 0.0 0.0 4.860403243099165 0.0 0.0 0.0 14.582432123328676" Properties=species:S:1:pos:R:3:tags:I:1:masses:R:1:momenta:R:3:forces:R:3 KEmax=23.26679191048647 iter=86776 volume=397.78090899293073 ns_energy=-11.633830070539169 last_walked_iter_clone=86701 energy=-11.633830070611369 stress="0.0223294675796458 -8.608969246368898e-09 6.378820585184235e-08 -8.608969246368898e-09 0.02266842621269322 6.486734855245736e-08 6.378820585184235e-08 6.486734855245736e-08 0.012332634888498449" pbc="T T F"
H        1.40307756       0.81006721       5.00000000        3       1.00000000       0.00000000       0.00000000       0.00000000       0.00000000       0.00000000       0.00000000
H        4.20923268       0.81006721       5.00000000        3       1.00000000       0.00000000       0.00000000       0.00000000       0.00000000       0.00000000       0.00000000
H        0.00000000       3.24026883       5.00000000        3       1.00000000       0.00000000       0.00000000       0.00000000       0.00000000       0.00000000       0.00000000
H        2.80615512       3.24026883       5.00000000        3       1.00000000       0.00000000       0.00000000       0.00000000       0.00000000       0.00000000       0.00000000
H        0.00000000       1.62013441       7.29121606        2       1.00000000       0.00000000       0.00000000       0.00000000       0.00000000       0.00000000       0.00000000
H        2.80615512       1.62013441       7.29121606        2       1.00000000       0.00000000       0.00000000       0.00000000       0.00000000       0.00000000       0.00000000
H        1.40307756       4.05033604       7.29121606        2       1.00000000       0.00000000       0.00000000       0.00000000       0.00000000       0.00000000       0.00000000
H        4.20923268       4.05033604       7.29121606        2       1.00000000       0.00000000       0.00000000       0.00000000       0.00000000       0.00000000       0.00000000
H        0.00000000       0.00000000       9.58243212        1       1.00000000       0.00000000       0.00000000       0.00000000       0.00000000       0.00000000       0.00000000
H        2.80615512       0.00000000       9.58243212        1       1.00000000       0.00000000       0.00000000       0.00000000       0.00000000       0.00000000       0.00000000
H        1.40307756       2.43020162       9.58243212        1       1.00000000       0.00000000       0.00000000       0.00000000       0.00000000       0.00000000       0.00000000
H        4.20923268       2.43020162       9.58243212        1       1.00000000       0.00000000       0.00000000       0.00000000       0.00000000       0.00000000       0.00000000
H        0.00000085       1.62013216       2.77136806        0       1.00000000       0.00000209       0.00000473      -0.00000161      -0.00000202       0.00000327      -0.00000621
H        1.40307872       4.05033543       2.77137162        0       1.00000000       0.00000030       0.00000037      -0.00000274       0.00000309      -0.00000189       0.00000127
H        4.20923680       0.81006983      11.81070523        0       1.00000000       0.00000009      -0.00000179      -0.00000086       0.00000298      -0.00000099      -0.00000096
H        4.20923387       4.05033270       2.77136852        0       1.00000000       0.00000473      -0.00000140      -0.00000390      -0.00000120       0.00000059      -0.00000316
H        1.40308256       0.81006869      11.81070619        0       1.00000000      -0.00000073      -0.00000159       0.00000031      -0.00000555      -0.00000200      -0.00000142
H        2.80615541       1.62013160       2.77136748        0       1.00000000      -0.00000256      -0.00000269       0.00000086       0.00000461       0.00000221       0.00000382
18
Lattice="5.612310241546866 0.0 0.0 0.0 4.860403243099165 0.0 0.0 0.0 14.582432123328676" Properties=species:S:1:pos:R:3:tags:I:1:masses:R:1:momenta:R:3:forces:R:3 KEmax=23.26679191048647 iter=86776 volume=397.78090899293073 ns_energy=-11.633830070540835 last_walked_iter_clone=86622 energy=-11.633830070611369 stress="0.0223294675796458 -8.608969246368898e-09 6.378820585184235e-08 -8.608969246368898e-09 0.02266842621269322 6.486734855245736e-08 6.378820585184235e-08 6.486734855245736e-08 0.012332634888498449" pbc="T T F"
H        1.40307756       0.81006721       5.00000000        3       1.00000000       0.00000000       0.00000000       0.00000000       0.00000000       0.00000000       0.00000000
H        4.20923268       0.81006721       5.00000000        3       1.00000000       0.00000000       0.00000000       0.00000000       0.00000000       0.00000000       0.00000000
H        0.00000000       3.24026883       5.00000000        3       1.00000000       0.00000000       0.00000000       0.00000000       0.00000000       0.00000000       0.00000000
H        2.80615512       3.24026883       5.00000000        3       1.00000000       0.00000000       0.00000000       0.00000000       0.00000000       0.00000000       0.00000000
H        0.00000000       1.62013441       7.29121606        2       1.00000000       0.00000000       0.00000000       0.00000000       0.00000000       0.00000000       0.00000000
H        2.80615512       1.62013441       7.29121606        2       1.00000000       0.00000000       0.00000000       0.00000000       0.00000000       0.00000000       0.00000000
H        1.40307756       4.05033604       7.29121606        2       1.00000000       0.00000000       0.00000000       0.00000000       0.00000000       0.00000000       0.00000000
H        4.20923268       4.05033604       7.29121606        2       1.00000000       0.00000000       0.00000000       0.00000000       0.00000000       0.00000000       0.00000000
H        0.00000000       0.00000000       9.58243212        1       1.00000000       0.00000000       0.00000000       0.00000000       0.00000000       0.00000000       0.00000000
H        2.80615512       0.00000000       9.58243212        1       1.00000000       0.00000000       0.00000000       0.00000000       0.00000000       0.00000000       0.00000000
H        1.40307756       2.43020162       9.58243212        1       1.00000000       0.00000000       0.00000000       0.00000000       0.00000000       0.00000000       0.00000000
H        4.20923268       2.43020162       9.58243212        1       1.00000000       0.00000000       0.00000000       0.00000000       0.00000000       0.00000000       0.00000000
H        5.61231018       1.62013228       2.77136650        0       1.00000000       0.00000071       0.00000023      -0.00000326      -0.00000202       0.00000327      -0.00000621
H        1.40307631       4.05033242       2.77136725        0       1.00000000      -0.00000249       0.00000166      -0.00000061       0.00000309      -0.00000189       0.00000127
H        4.20923265       0.81006773      11.81070558        0       1.00000000      -0.00000308      -0.00000030      -0.00000364       0.00000298      -0.00000099      -0.00000096
H        4.20923186       4.05033661       2.77136937        0       1.00000000      -0.00000446      -0.00000292      -0.00000320      -0.00000120       0.00000059      -0.00000316
H        1.40308066       0.81006867      11.81070470        0       1.00000000       0.00000018      -0.00000370      -0.00000114      -0.00000555      -0.00000200      -0.00000142
H        2.80615441       1.62013353       2.77136521        0       1.00000000       0.00000183      -0.00000410       0.00000290       0.00000461       0.00000221       0.00000382
18
Lattice="5.612310241546866 0.0 0.0 0.0 4.860403243099165 0.0 0.0 0.0 14.582432123328676" Properties=species:S:1:pos:R:3:tags:I:1:masses:R:1:momenta:R:3:forces:R:3 KEmax=23.26679191048647 iter=86776 volume=397.78090899293073 ns_energy=-11.633830070541253 last_walked_iter_clone=86698 energy=-11.633830070611369 stress="0.0223294675796458 -8.608969246368898e-09 6.378820585184235e-08 -8.608969246368898e-09 0.02266842621269322 6.486734855245736e-08 6.378820585184235e-08 6.486734855245736e-08 0.012332634888498449" pbc="T T F"
H        1.40307756       0.81006721       5.00000000        3       1.00000000       0.00000000       0.00000000       0.00000000       0.00000000       0.00000000       0.00000000
H        4.20923268       0.81006721       5.00000000        3       1.00000000       0.00000000       0.00000000       0.00000000       0.00000000       0.00000000       0.00000000
H        0.00000000       3.24026883       5.00000000        3       1.00000000       0.00000000       0.00000000       0.00000000       0.00000000       0.00000000       0.00000000
H        2.80615512       3.24026883       5.00000000        3       1.00000000       0.00000000       0.00000000       0.00000000       0.00000000       0.00000000       0.00000000
H        0.00000000       1.62013441       7.29121606        2       1.00000000       0.00000000       0.00000000       0.00000000       0.00000000       0.00000000       0.00000000
H        2.80615512       1.62013441       7.29121606        2       1.00000000       0.00000000       0.00000000       0.00000000       0.00000000       0.00000000       0.00000000
H        1.40307756       4.05033604       7.29121606        2       1.00000000       0.00000000       0.00000000       0.00000000       0.00000000       0.00000000       0.00000000
H        4.20923268       4.05033604       7.29121606        2       1.00000000       0.00000000       0.00000000       0.00000000       0.00000000       0.00000000       0.00000000
H        0.00000000       0.00000000       9.58243212        1       1.00000000       0.00000000       0.00000000       0.00000000       0.00000000       0.00000000       0.00000000
H        2.80615512       0.00000000       9.58243212        1       1.00000000       0.00000000       0.00000000       0.00000000       0.00000000       0.00000000       0.00000000
H        1.40307756       2.43020162       9.58243212        1       1.00000000       0.00000000       0.00000000       0.00000000       0.00000000       0.00000000       0.00000000
H        4.20923268       2.43020162       9.58243212        1       1.00000000       0.00000000       0.00000000       0.00000000       0.00000000       0.00000000       0.00000000
H        5.61231089       1.62013513       2.77136632        0       1.00000000      -0.00000377       0.00000005      -0.00000067      -0.00000202       0.00000327      -0.00000621
H        1.40307853       4.05033859       2.77136535        0       1.00000000       0.00000190      -0.00000024       0.00000148       0.00000309      -0.00000189       0.00000127
H        4.20923358       0.81006709      11.81070593        0       1.00000000       0.00000331       0.00000106      -0.00000590       0.00000298      -0.00000099      -0.00000096
H        4.20923237       4.05033877       2.77136503        0       1.00000000      -0.00000019      -0.00000030      -0.00000093      -0.00000120       0.00000059      -0.00000316
H        1.40307714       0.81006138      11.81070426        0       1.00000000       0.00000047      -0.00000090       0.00000345      -0.00000555      -0.00000200      -0.00000142
H        2.80615640       1.62013565       2.77136938        0       1.00000000      -0.00000499       0.00000079      -0.00000368       0.00000461       0.00000221       0.00000382
18
Lattice="5.612310241546866 0.0 0.0 0.0 4.860403243099165 0.0 0.0 0.0 14.582432123328676" Properties=species:S:1:pos:R:3:tags:I:1:masses:R:1:momenta:R:3:forces:R:3 KEmax=23.26679191048647 iter=86776 volume=397.78090899293073 ns_energy=-11.633830070538863 last_walked_iter_clone=86677 energy=-11.633830070611369 stress="0.0223294675796458 -8.608969246368898e-09 6.378820585184235e-08 -8.608969246368898e-09 0.02266842621269322 6.486734855245736e-08 6.378820585184235e-08 6.486734855245736e-08 0.012332634888498449" pbc="T T F"
H        1.40307756       0.81006721       5.00000000        3       1.00000000       0.00000000       0.00000000       0.00000000       0.00000000       0.00000000       0.00000000
H        4.20923268       0.81006721       5.00000000        3       1.00000000       0.00000000       0.00000000       0.00000000       0.00000000       0.00000000       0.00000000
H        0.00000000       3.24026883       5.00000000        3       1.00000000       0.00000000       0.00000000       0.00000000       0.00000000       0.00000000       0.00000000
H        2.80615512       3.24026883       5.00000000        3       1.00000000       0.00000000       0.00000000       0.00000000       0.00000000       0.00000000       0.00000000
H        0.00000000       1.62013441       7.29121606        2       1.00000000       0.00000000       0.00000000       0.00000000       0.00000000       0.00000000       0.00000000
H        2.80615512       1.62013441       7.29121606        2       1.00000000       0.00000000       0.00000000       0.00000000       0.00000000       0.00000000       0.00000000
H        1.40307756       4.05033604       7.29121606        2       1.00000000       0.00000000       0.00000000       0.00000000       0.00000000       0.00000000       0.00000000
H        4.20923268       4.05033604       7.29121606        2       1.00000000       0.00000000       0.00000000       0.00000000       0.00000000       0.00000000       0.00000000
H        0.00000000       0.00000000       9.58243212        1       1.00000000       0.00000000       0.00000000       0.00000000       0.00000000       0.00000000       0.00000000
H        2.80615512       0.00000000       9.58243212        1       1.00000000       0.00000000       0.00000000       0.00000000       0.00000000       0.00000000       0.00000000
H        1.40307756       2.43020162       9.58243212        1       1.00000000       0.00000000       0.00000000       0.00000000       0.00000000       0.00000000       0.00000000
H        4.20923268       2.43020162       9.58243212        1       1.00000000       0.00000000       0.00000000       0.00000000       0.00000000       0.00000000       0.00000000
H        5.61230835       1.62013481       2.77136976        0       1.00000000       0.00000093       0.00000050       0.00000270      -0.00000202       0.00000327      -0.00000621
H        1.40307615       4.05033694       2.77136771        0       1.00000000       0.00000554      -0.00000170      -0.00000219       0.00000309      -0.00000189       0.00000127
H        4.20923536       0.81006691      11.81070445        0       1.00000000       0.00000230       0.00000000      -0.00000437       0.00000298      -0.00000099      -0.00000096
H        4.20923249       4.05033624       2.77136916        0       1.00000000       0.00000486       0.00000056       0.00000206      -0.00000120       0.00000059      -0.00000316
H        1.40308115       0.81006919      11.81070881        0       1.00000000       0.00000206       0.00000095       0.00000161      -0.00000555      -0.00000200      -0.00000142
H        2.80615419       1.62013531       2.77136967        0       1.00000000      -0.00000113       0.00000168      -0.00000026       0.00000461       0.00000221       0.00000382
18
Lattice="5.612310241546866 0.0 0.0 0.0 4.860403243099165 0.0 0.0 0.0 14.582432123328676" Properties=species:S:1:pos:R:3:tags:I:1:masses:R:1:momenta:R:3:forces:R:3 KEmax=23.26679191048647 iter=86776 volume=397.78090899293073 ns_energy=-11.63383007053947 last_walked_iter_clone=86644 energy=-11.633830070611369 stress="0.0223294675796458 -8.608969246368898e-09 6.378820585184235e-08 -8.608969246368898e-09 0.02266842621269322 6.486734855245736e-08 6.378820585184235e-08 6.486734855245736e-08 0.012332634888498449" pbc="T T F"
H        1.40307756       0.81006721       5.00000000        3       1.00000000       0.00000000       0.00000000       0.00000000       0.00000000       0.00000000       0.00000000
H        4.20923268       0.81006721       5.00000000        3       1.00000000       0.00000000       0.00000000       0.00000000       0.00000000       0.00000000       0.00000000
H        0.00000000       3.24026883       5.00000000        3       1.00000000       0.00000000       0.00000000       0.00000000       0.00000000       0.00000000       0.00000000
H        2.80615512       3.24026883       5.00000000        3       1.00000000       0.00000000       0.00000000       0.00000000       0.00000000       0.00000000       0.00000000
H        0.00000000       1.62013441       7.29121606        2       1.00000000       0.00000000       0.00000000       0.00000000       0.00000000       0.00000000       0.00000000
H        2.80615512       1.62013441       7.29121606        2       1.00000000       0.00000000       0.00000000       0.00000000       0.00000000       0.00000000       0.00000000
H        1.40307756       4.05033604       7.29121606        2       1.00000000       0.00000000       0.00000000       0.00000000       0.00000000       0.00000000       0.00000000
H        4.20923268       4.05033604       7.29121606        2       1.00000000       0.00000000       0.00000000       0.00000000       0.00000000       0.00000000       0.00000000
H        0.00000000       0.00000000       9.58243212        1       1.00000000       0.00000000       0.00000000       0.00000000       0.00000000       0.00000000       0.00000000
H        2.80615512       0.00000000       9.58243212        1       1.00000000       0.00000000       0.00000000       0.00000000       0.00000000       0.00000000       0.00000000
H        1.40307756       2.43020162       9.58243212        1       1.00000000       0.00000000       0.00000000       0.00000000       0.00000000       0.00000000       0.00000000
H        4.20923268       2.43020162       9.58243212        1       1.00000000       0.00000000       0.00000000       0.00000000       0.00000000       0.00000000       0.00000000
H       -0.00000151       1.62013523       2.77137000        0       1.00000000       0.00000142      -0.00000444      -0.00000359      -0.00000202       0.00000327      -0.00000621
H        1.40307753       4.05033767       2.77136596        0       1.00000000      -0.00000008       0.00000127       0.00000020       0.00000309      -0.00000189       0.00000127
H        4.20923112       0.81006982      11.81070515        0       1.00000000       0.00000066      -0.00000025       0.00000387       0.00000298      -0.00000099      -0.00000096
H        4.20923281       4.05033243       2.77136632        0       1.00000000      -0.00000251      -0.00000060      -0.00000036      -0.00000120       0.00000059      -0.00000316
H        1.40307664       0.81006989      11.81070605        0       1.00000000       0.00000221       0.00000301      -0.00000088      -0.00000555      -0.00000200      -0.00000142
H        2.80615414       1.62013348       2.77136635        0       1.00000000      -0.00000355      -0.00000399      -0.00000339       0.00000461       0.00000221       0.00000382
18
Lattice="5.612310241546866 0.0 0.0 0.0 4.860403243099165 0.0 0.0 0.0 14.582432123328676" Properties=species:S:1:pos:R:3:tags:I:1:masses:R:1:momenta:R:3:forces:R:3 KEmax=23.26679191048647 iter=86776 volume=397.78090899293073 ns_energy=-11.633830070538837 last_walked_iter_clone=86570 energy=-11.633830070611369 stress="0.0223294675796458 -8.608969246368898e-09 6.378820585184235e-08 -8.608969246368898e-09 0.02266842621269322 6.486734855245736e-08 6.378820585184235e-08 6.486734855245736e-08 0.012332634888498449" pbc="T T F"
H        1.40307756       0.81006721       5.00000000        3       1.00000000       0.00000000       0.00000000       0.00000000       0.00000000       0.00000000       0.00000000
H        4.20923268       0.81006721       5.00000000        3       1.00000000       0.00000000       0.00000000       0.00000000       0.00000000       0.00000000       0.00000000
H        0.00000000       3.24026883       5.00000000        3       1.00000000       0.00000000       0.00000000       0.00000000       0.00000000       0.00000000       0.00000000
H        2.80615512       3.24026883       5.00000000        3       1.00000000       0.00000000       0.00000000       0.00000000       0.00000000       0.00000000       0.00000000
H        0.00000000       1.62013441       7.29121606        2       1.00000000       0.00000000       0.00000000       0.00000000       0.00000000       0.00000000       0.00000000
H        2.80615512       1.62013441       7.29121606        2       1.00000000       0.00000000       0.00000000       0.00000000       0.00000000       0.00000000       0.00000000
H        1.40307756       4.05033604       7.29121606        2       1.00000000       0.00000000       0.00000000       0.00000000       0.00000000       0.00000000       0.00000000
H        4.20923268       4.05033604       7.29121606        2       1.00000000       0.00000000       0.00000000       0.00000000       0.00000000       0.00000000       0.00000000
H        0.00000000       0.00000000       9.58243212        1       1.00000000       0.00000000       0.00000000       0.00000000       0.00000000       0.00000000       0.00000000
H        2.80615512       0.00000000       9.58243212        1       1.00000000       0.00000000       0.00000000       0.00000000       0.00000000       0.00000000       0.00000000
H        1.40307756       2.43020162       9.58243212        1       1.00000000       0.00000000       0.00000000       0.00000000       0.00000000       0.00000000       0.00000000
H        4.20923268       2.43020162       9.58243212        1       1.00000000       0.00000000       0.00000000       0.00000000       0.00000000       0.00000000       0.00000000
H        5.61230863       1.62013390       2.77136808        0       1.00000000       0.00000529       0.00000198      -0.00000107      -0.00000202       0.00000327      -0.00000621
H        1.40307505       4.05033587       2.77136655        0       1.00000000      -0.00000058       0.00000087      -0.00000157       0.00000309      -0.00000189       0.00000127
H        4.20923459       0.81006451      11.81070384        0       1.00000000      -0.00000018       0.00000521       0.00000027       0.00000298      -0.00000099      -0.00000096
H        4.20923142       4.05033428       2.77136866        0       1.00000000      -0.00000091       0.00000086       0.00000078      -0.00000120       0.00000059      -0.00000316
H        1.40307878       0.81006943      11.81070595        0       1.00000000       0.00000044       0.00000117      -0.00000088      -0.00000555      -0.00000200      -0.00000142
H        2.80615669       1.62013011       2.77136699        0       1.00000000      -0.00000568       0.00000102      -0.00000260       0.00000461       0.00000221       0.00000382
18
Lattice="5.612310241546866 0.0 0.0 0.0 4.860403243099165 0.0 0.0 0.0 14.582432123328676" Properties=species:S:1:pos:R:3:tags:I:1:masses:R:1:momenta:R:3:forces:R:3 KEmax=23.26679191048647 iter=86776 volume=397.78090899293073 ns_energy=-11.633830070538934 last_walked_iter_clone=86769 energy=-11.633830070611369 stress="0.0223294675796458 -8.608969246368898e-09 6.378820585184235e-08 -8.608969246368898e-09 0.02266842621269322 6.486734855245736e-08 6.378820585184235e-08 6.486734855245736e-08 0.012332634888498449" pbc="T T F"
H        1.40307756       0.81006721       5.00000000        3       1.00000000       0.00000000       0.00000000       0.00000000       0.00000000       0.00000000       0.00000000
H        4.20923268       0.81006721       5.00000000        3       1.00000000       0.00000000       0.00000000       0.00000000       0.00000000       0.00000000       0.00000000
H        0.00000000       3.24026883       5.00000000        3       1.00000000       0.00000000       0.00000000       0.00000000       0.00000000       0.00000000       0.00000000
H        2.80615512       3.24026883       5.00000000        3       1.00000000       0.00000000       0.00000000       0.00000000       0.00000000       0.00000000       0.00000000
H        0.00000000       1.62013441       7.29121606        2       1.00000000       0.00000000       0.00000000       0.00000000       0.00000000       0.00000000       0.00000000
H        2.80615512       1.62013441       7.29121606        2       1.00000000       0.00000000       0.00000000       0.00000000       0.00000000       0.00000000       0.00000000
H        1.40307756       4.05033604       7.29121606        2       1.00000000       0.00000000       0.00000000       0.00000000       0.00000000       0.00000000       0.00000000
H        4.20923268       4.05033604       7.29121606        2       1.00000000       0.00000000       0.00000000       0.00000000       0.00000000       0.00000000       0.00000000
H        0.00000000       0.00000000       9.58243212        1       1.00000000       0.00000000       0.00000000       0.00000000       0.00000000       0.00000000       0.00000000
H        2.80615512       0.00000000       9.58243212        1       1.00000000       0.00000000       0.00000000       0.00000000       0.00000000       0.00000000       0.00000000
H        1.40307756       2.43020162       9.58243212        1       1.00000000       0.00000000       0.00000000       0.00000000       0.00000000       0.00000000       0.00000000
H        4.20923268       2.43020162       9.58243212        1       1.00000000       0.00000000       0.00000000       0.00000000       0.00000000       0.00000000       0.00000000
H       -0.00000474       1.62013360       2.77136590        0       1.00000000       0.00000403       0.00000052      -0.00000021      -0.00000202       0.00000327      -0.00000621
H        1.40307429       4.05033502       2.77136511        0       1.00000000      -0.00000232      -0.00000166      -0.00000044       0.00000309      -0.00000189       0.00000127
H        4.20923346       0.81006913      11.81070806        0       1.00000000      -0.00000111       0.00000302      -0.00000166       0.00000298      -0.00000099      -0.00000096
H        4.20923004       4.05033535       2.77136691        0       1.00000000      -0.00000452       0.00000224      -0.00000161      -0.00000120       0.00000059      -0.00000316
H        1.40307993       0.81006808      11.81070336        0       1.00000000       0.00000248       0.00000475       0.00000130      -0.00000555      -0.00000200      -0.00000142
H        2.80615291       1.62013327       2.77136823        0       1.00000000       0.00000028      -0.00000409       0.00000098       0.00000461       0.00000221       0.00000382
18
Lattice="5.612310241546866 0.0 0.0 0.0 4.860403243099165 0.0 0.0 0.0 14.582432123328676" Properties=species:S:1:pos:R:3:tags:I:1:masses:R:1:momenta:R:3:forces:R:3 KEmax=23.26679191048647 iter=86776 volume=397.78090899293073 ns_energy=-11.633830070542455 last_walked_iter_clone=86747 energy=-11.633830070611369 stress="0.0223294675796458 -8.608969246368898e-09 6.378820585184235e-08 -8.608969246368898e-09 0.02266842621269322 6.486734855245736e-08 6.378820585184235e-08 6.486734855245736e-08 0.012332634888498449" pbc="T T F"
H        1.40307756       0.81006721       5.00000000        3       1.00000000       0.00000000       0.00000000       0.00000000       0.00000000       0.00000000       0.00000000
H        4.20923268       0.81006721       5.00000000        3       1.00000000       0.00000000       0.00000000       0.00000000       0.00000000       0.00000000       0.00000000
H        0.00000000       3.24026883       5.00000000        3       1.00000000       0.00000000       0.00000000       0.00000000       0.00000000       0.00000000       0.00000000
H        2.80615512       3.24026883       5.00000000        3       1.00000000       0.00000000       0.00000000       0.00000000       0.00000000       0.00000000       0.00000000
H        0.00000000       1.62013441       7.29121606        2       1.00000000       0.00000000       0.00000000       0.00000000       0.00000000       0.00000000       0.00000000
H        2.80615512       1.62013441       7.29121606        2       1.00000000       0.00000000       0.00000000       0.00000000       0.00000000       0.00000000       0.00000000
H        1.40307756       4.05033604       7.29121606        2       1.00000000       0.00000000       0.00000000       0.00000000       0.00000000       0.00000000       0.00000000
H        4.20923268       4.05033604       7.29121606        2       1.00000000       0.00000000       0.00000000       0.00000000       0.00000000       0.00000000       0.00000000
H        0.00000000       0.00000000       9.58243212        1       1.00000000       0.00000000       0.00000000       0.00000000       0.00000000       0.00000000       0.00000000
H        2.80615512       0.00000000       9.58243212        1       1.00000000       0.00000000       0.00000000       0.00000000       0.00000000       0.00000000       0.00000000
H        1.40307756       2.43020162       9.58243212        1       1.00000000       0.00000000       0.00000000       0.00000000       0.00000000       0.00000000       0.00000000
H        4.20923268       2.43020162       9.58243212        1       1.00000000       0.00000000       0.00000000       0.00000000       0.00000000       0.00000000       0.00000000
H       -0.00000318       1.62013376       2.77136657        0       1.00000000       0.00000127       0.00000373       0.00000006      -0.00000202       0.00000327      -0.00000621
H        1.40307661       4.05033658       2.77136578        0       1.00000000      -0.00000208       0.00000119      -0.00000071       0.00000309      -0.00000189       0.00000127
H        4.20923224       0.81006338      11.81070591        0       1.00000000       0.00000161       0.00000285      -0.00000532       0.00000298      -0.00000099      -0.00000096