18
Lattice="5.612310241546866 0.0 0.0 0.0 4.860403243099165 0.0 0.0 0.0 14.582432123328676" Properties=species:S:1:pos:R:3:tags:I:1:masses:R:1:momenta:R:3 KEmax=23.26679191048647 iter=99 volume=397.78090899293073 ns_energy=13603.858725277067 ns_P=0.0 config_n_global=99 ns_KE=10.872097229825547 pbc="T T F"
H        1.40307756       0.81006721       5.00000000        3       1.00000000       0.00000000       0.00000000       0.00000000
H        4.20923268       0.81006721       5.00000000        3       1.00000000       0.00000000       0.00000000       0.00000000
H        0.00000000       3.24026883       5.00000000        3       1.00000000       0.00000000       0.00000000       0.00000000
H        2.80615512       3.24026883       5.00000000        3       1.00000000       0.00000000       0.00000000       0.00000000
H        0.00000000       1.62013441       7.29121606        2       1.00000000       0.00000000       0.00000000       0.00000000
H        2.80615512       1.62013441       7.29121606        2       1.00000000       0.00000000       0.00000000       0.00000000
H        1.40307756       4.05033604       7.29121606        2       1.00000000       0.00000000       0.00000000       0.00000000
H        4.20923268       4.05033604       7.29121606        2       1.00000000       0.00000000       0.00000000       0.00000000
H        0.00000000       0.00000000       9.58243212        1       1.00000000       0.00000000       0.00000000       0.00000000
H        2.80615512       0.00000000       9.58243212        1       1.00000000       0.00000000       0.00000000       0.00000000
H        1.40307756       2.43020162       9.58243212        1       1.00000000       0.00000000       0.00000000       0.00000000
H        4.20923268       2.43020162       9.58243212        1       1.00000000       0.00000000       0.00000000       0.00000000
H        3.64097802       1.13830595       2.98366922        0       1.00000000      -0.91482673      -0.68831625      -0.06101394
H        5.59475335       0.02052964       2.60333803        0       1.00000000      -1.43588959      -0.65607506      -1.64703130
H        4.44389109       2.40926983      12.57907472        0       1.00000000      -0.59661967      -1.95936371       1.69468189
H        2.62098634       0.38370107       2.49031174        0       1.00000000      -0.89930858      -0.33498819       0.02422447
H        3.03657027       3.20798058      11.85291802        0       1.00000000      -0.46711023       0.42658390      -0.46453354
H        2.25897183       4.36628953       2.03903193        0       1.00000000       0.76668922      -2.45540519      -0.05922034
18
Lattice="5.612310241546866 0.0 0.0 0.0 4.860403243099165 0.0 0.0 0.0 14.582432123328676" Properties=species:S:1:pos:R:3:tags:I:1:masses:R:1:momenta:R:3 KEmax=23.26679191048647 iter=199 volume=397.78090899293073 ns_energy=776.7768734230465 last_walked_iter_clone=109 ns_P=0.0 config_n_global=199 ns_KE=21.020061561334117 pbc="T T F"
H        1.40307756       0.81006721       5.00000000        3       1.00000000       0.00000000       0.00000000       0.00000000
H        4.20923268       0.81006721       5.00000000        3       1.00000000       0.00000000       0.00000000       0.00000000
H        0.00000000       3.24026883       5.00000000        3       1.00000000       0.00000000       0.00000000       0.00000000
H        2.80615512       3.24026883       5.00000000        3       1.00000000       0.00000000       0.00000000       0.00000000
H        0.00000000       1.62013441       7.29121606        2       1.00000000       0.00000000       0.00000000       0.00000000
H        2.80615512       1.62013441       7.29121606        2       1.00000000       0.00000000       0.00000000       0.00000000
H        1.40307756       4.05033604       7.29121606        2       1.00000000       0.00000000       0.00000000       0.00000000
H        4.20923268       4.05033604       7.29121606        2       1.00000000       0.00000000       0.00000000       0.00000000
H        0.00000000       0.00000000       9.58243212        1       1.00000000       0.00000000       0.00000000       0.00000000
H        2.80615512       0.00000000       9.58243212        1       1.00000000       0.00000000       0.00000000       0.00000000
H        1.40307756       2.43020162       9.58243212        1       1.00000000       0.00000000       0.00000000       0.00000000
H        4.20923268       2.43020162       9.58243212        1       1.00000000       0.00000000       0.00000000       0.00000000
H        4.94923316       1.08376665       2.48904417        0       1.00000000      -1.94916017      -1.31687427       1.09350865
H        1.54025055       3.03945338       2.21571227        0       1.00000000       0.12786025       0.15553810       0.19029772
H        0.73464548       1.54755359      11.92813073        0       1.00000000      -2.01899537       2.05767646      -0.58942976
H        5.49714815       2.29136117       2.20122817        0       1.00000000       0.93402553       0.81651091       0.39537410
H        0.44172325       4.25752343      11.99811704        0       1.00000000       0.33540172       2.48287969      -0.06664716
H        3.59015183       1.76469120       2.44752071        0       1.00000000      -2.17256470      -3.66716582      -0.65668742
18
Lattice="5.612310241546866 0.0 0.0 0.0 4.860403243099165 0.0 0.0 0.0 14.582432123328676" Properties=species:S:1:pos:R:3:tags:I:1:masses:R:1:momenta:R:3 KEmax=23.26679191048647 iter=299 volume=397.78090899293073 ns_energy=52.71002809461859 last_walked_iter_clone=253 ns_P=0.0 config_n_global=299 ns_KE=21.67907929405792 pbc="T T F"
H        1.40307756       0.81006721       5.00000000        3       1.00000000       0.00000000       0.00000000       0.00000000
H        4.20923268       0.81006721       5.00000000        3       1.00000000       0.00000000       0.00000000       0.00000000
H        0.00000000       3.24026883       5.00000000        3       1.00000000       0.00000000       0.00000000       0.00000000
H        2.80615512       3.24026883       5.00000000        3       1.00000000       0.00000000       0.00000000       0.00000000
H        0.00000000       1.62013441       7.29121606        2       1.00000000       0.00000000       0.00000000       0.00000000
H        2.80615512       1.62013441       7.29121606        2       1.00000000       0.00000000       0.00000000       0.00000000
H        1.40307756       4.05033604       7.29121606        2       1.00000000       0.00000000       0.00000000       0.00000000
H        4.20923268       4.05033604       7.29121606        2       1.00000000       0.00000000       0.00000000       0.00000000
H        0.00000000       0.00000000       9.58243212        1       1.00000000       0.00000000       0.00000000       0.00000000
H        2.80615512       0.00000000       9.58243212        1       1.00000000       0.00000000       0.00000000       0.00000000
H        1.40307756       2.43020162       9.58243212        1       1.00000000       0.00000000       0.00000000       0.00000000
H        4.20923268       2.43020162       9.58243212        1       1.00000000       0.00000000       0.00000000       0.00000000
H        2.45887842       2.41964290       2.27388941        0       1.00000000       1.08389061      -1.74403510       1.30323415
H        0.93395238       3.59353126       2.11824301        0       1.00000000       1.36763282       1.53315337       1.49035749
H        4.20556401       1.95443288      12.32045971        0       1.00000000       0.27192252       0.22024239       0.00046846
H        1.13152127       0.99427760       2.91213900        0       1.00000000      -2.70553351      -1.20226069      -2.56367658
H        2.38684301       2.52633394      11.85653375        0       1.00000000      -1.17817880      -1.64829323       1.13983764
H        2.90970417       0.64886247       2.91029219        0       1.00000000       1.19025813       2.94607377      -0.20153982
18
Lattice="5.612310241546866 0.0 0.0 0.0 4.860403243099165 0.0 0.0 0.0 14.582432123328676" Properties=species:S:1:pos:R:3:tags:I:1:masses:R:1:momenta:R:3 KEmax=23.26679191048647 iter=399 volume=397.78090899293073 ns_energy=28.48710519955658 last_walked_iter_clone=287 ns_P=0.0 config_n_global=399 ns_KE=22.532721399792546 pbc="T T F"
H        1.40307756       0.81006721       5.00000000        3       1.00000000       0.00000000       0.00000000       0.00000000
H        4.20923268       0.81006721       5.00000000        3       1.00000000       0.00000000       0.00000000       0.00000000
H        0.00000000       3.24026883       5.00000000        3       1.00000000       0.00000000       0.00000000       0.00000000
H        2.80615512       3.24026883       5.00000000        3       1.00000000       0.00000000       0.00000000       0.00000000
H        0.00000000       1.62013441       7.29121606        2       1.00000000       0.00000000       0.00000000       0.00000000
H        2.80615512       1.62013441       7.29121606        2       1.00000000       0.00000000       0.00000000       0.00000000
H        1.40307756       4.05033604       7.29121606        2       1.00000000       0.00000000       0.00000000       0.00000000
H        4.20923268       4.05033604       7.29121606        2       1.00000000       0.00000000       0.00000000       0.00000000
H        0.00000000       0.00000000       9.58243212        1       1.00000000       0.00000000       0.00000000       0.00000000
H        2.80615512       0.00000000       9.58243212        1       1.00000000       0.00000000       0.00000000       0.00000000
H        1.40307756       2.43020162       9.58243212        1       1.00000000       0.00000000       0.00000000       0.00000000
H        4.20923268       2.43020162       9.58243212        1       1.00000000       0.00000000       0.00000000       0.00000000
H        0.07063069       1.08431159       2.58698151        0       1.00000000       1.27426014       1.65374028      -0.52415794
H        2.14347557       1.68751996       2.16271268        0       1.00000000       1.48186724       0.91078320      -0.10019141
H        5.57015802       0.84767603      11.83284402        0       1.00000000      -1.77420720       0.28992518       0.68586881
H        4.70229269       3.75540321       2.54841330        0       1.00000000      -0.33981722      -0.85955243      -0.19391811
H        2.92960170       0.56171596      12.12820982        0       1.00000000       0.80155802       2.81190579      -3.82284988
H        3.20989494       0.00431016       2.56355320        0       1.00000000       1.43501878       1.88963291       2.00223233
18
Lattice="5.612310241546866 0.0 0.0 0.0 4.860403243099165 0.0 0.0 0.0 14.582432123328676" Properties=species:S:1:pos:R:3:tags:I:1:masses:R:1:momenta:R:3 KEmax=23.26679191048647 iter=499 volume=397.78090899293073 ns_energy=17.631830518284215 last_walked_iter_clone=317 ns_P=0.0 config_n_global=499 ns_KE=20.11891876489037 pbc="T T F"
H        1.40307756       0.81006721       5.00000000        3       1.00000000       0.00000000       0.00000000       0.00000000
H        4.20923268       0.81006721       5.00000000        3       1.00000000       0.00000000       0.00000000       0.00000000
H        0.00000000       3.24026883       5.00000000        3       1.00000000       0.00000000       0.00000000       0.00000000
H        2.80615512       3.24026883       5.00000000        3       1.00000000       0.00000000       0.00000000       0.00000000
H        0.00000000       1.62013441       7.29121606        2       1.00000000       0.00000000       0.00000000       0.00000000
H        2.80615512       1.62013441       7.29121606        2       1.00000000       0.00000000       0.00000000       0.00000000
H        1.40307756       4.05033604       7.29121606        2       1.00000000       0.00000000       0.00000000       0.00000000
H        4.20923268       4.05033604       7.29121606        2       1.00000000       0.00000000       0.00000000       0.00000000
H        0.00000000       0.00000000       9.58243212        1       1.00000000       0.00000000       0.00000000       0.00000000
H        2.80615512       0.00000000       9.58243212        1       1.00000000       0.00000000       0.00000000       0.00000000
H        1.40307756       2.43020162       9.58243212        1       1.00000000       0.00000000       0.00000000       0.00000000
H        4.20923268       2.43020162       9.58243212        1       1.00000000       0.00000000       0.00000000       0.00000000
H        5.57159590       1.07955150       2.60142261        0       1.00000000      -1.43522735      -2.86996118       0.27560247
H        2.15158804       1.81090448       2.17488406        0       1.00000000      -0.69264028       2.87196530      -0.21531915
H        5.52206905       0.90399718      11.98123423        0       1.00000000      -0.68321739       1.26089780       1.70018488
H        4.70921171       3.66365138       2.54476287        0       1.00000000       0.19237020      -2.12018103      -0.93434446
H        2.90105166       0.57146122      12.17300639        0       1.00000000      -1.07105687       1.01581123       0.75729061
H        3.17614858       0.12549919       2.58693301        0       1.00000000       0.02345678       2.76579628      -0.57954597
18
Lattice="5.612310241546866 0.0 0.0 0.0 4.860403243099165 0.0 0.0 0.0 14.582432123328676" Properties=species:S:1:pos:R:3:tags:I:1:masses:R:1:momenta:R:3 KEmax=23.26679191048647 iter=599 volume=397.78090899293073 ns_energy=13.603863406384173 last_walked_iter_clone=526 ns_P=0.0 config_n_global=599 ns_KE=19.908982023780716 pbc="T T F"
H        1.40307756       0.81006721       5.00000000        3       1.00000000       0.00000000       0.00000000       0.00000000
H        4.20923268       0.81006721       5.00000000        3       1.00000000       0.00000000       0.00000000       0.00000000
H        0.00000000       3.24026883       5.00000000        3       1.00000000       0.00000000       0.00000000       0.00000000
H        2.80615512       3.24026883       5.00000000        3       1.00000000       0.00000000       0.00000000       0.00000000
H        0.00000000       1.62013441       7.29121606        2       1.00000000       0.00000000       0.00000000       0.00000000
H        2.80615512       1.62013441       7.29121606        2       1.00000000       0.00000000       0.00000000       0.00000000
H        1.40307756       4.05033604       7.29121606        2       1.00000000       0.00000000       0.00000000       0.00000000
H        4.20923268       4.05033604       7.29121606        2       1.00000000       0.00000000       0.00000000       0.00000000
H        0.00000000       0.00000000       9.58243212        1       1.00000000       0.00000000       0.00000000       0.00000000
H        2.80615512       0.00000000       9.58243212        1       1.00000000       0.00000000       0.00000000       0.00000000
H        1.40307756       2.43020162       9.58243212        1       1.00000000       0.00000000       0.00000000       0.00000000
H        4.20923268       2.43020162       9.58243212        1       1.00000000       0.00000000       0.00000000       0.00000000
H        4.00615943       0.64164272       1.14028693        0       1.00000000      -0.65611598      -0.11381957      -2.11489837
H        4.02142278       2.92485828       1.77615790        0       1.00000000      -0.27754924       1.39505243      -1.62007425
H        1.15157803       2.54406134      12.63856890        0       1.00000000      -0.05959957      -2.61662661      -0.77298496
H        0.48566929       4.65445141       1.16852942        0       1.00000000       0.07241588      -0.44812522      -2.36669352
H        5.16742258       1.02265315      11.35017977        0       1.00000000      -1.18842258      -0.28552102      -3.09871435
H        1.70983486       1.68710367       2.30399473        0       1.00000000       0.93852098       2.11215206       0.74891937
18
Lattice="5.612310241546866 0.0 0.0 0.0 4.860403243099165 0.0 0.0 0.0 14.582432123328676" Properties=species:S:1:pos:R:3:tags:I:1:masses:R:1:momenta:R:3 KEmax=23.26679191048647 iter=699 volume=397.78090899293073 ns_energy=12.195237655214136 last_walked_iter_clone=623 ns_P=0.0 config_n_global=699 ns_KE=21.06658795848263 pbc="T T F"
H        1.40307756       0.81006721       5.00000000        3       1.00000000       0.00000000       0.00000000       0.00000000
H        4.20923268       0.81006721       5.00000000        3       1.00000000       0.00000000       0.00000000       0.00000000
H        0.00000000       3.24026883       5.00000000        3       1.00000000       0.00000000       0.00000000       0.00000000
H        2.80615512       3.24026883       5.00000000        3       1.00000000       0.00000000       0.00000000       0.00000000
H        0.00000000       1.62013441       7.29121606        2       1.00000000       0.00000000       0.00000000       0.00000000
H        2.80615512       1.62013441       7.29121606        2       1.00000000       0.00000000       0.00000000       0.00000000
H        1.40307756       4.05033604       7.29121606        2       1.00000000       0.00000000       0.00000000       0.00000000
H        4.20923268       4.05033604       7.29121606        2       1.00000000       0.00000000       0.00000000       0.00000000
H        0.00000000       0.00000000       9.58243212        1       1.00000000       0.00000000       0.00000000       0.00000000
H        2.80615512       0.00000000       9.58243212        1       1.00000000       0.00000000       0.00000000       0.00000000
H        1.40307756       2.43020162       9.58243212        1       1.00000000       0.00000000       0.00000000       0.00000000
H        4.20923268       2.43020162       9.58243212        1       1.00000000       0.00000000       0.00000000       0.00000000
H        0.96576884       4.60177067       1.86641246        0       1.00000000       2.44716669      -0.80876986       1.09067378
H        5.56715997       2.69280993       0.58895866        0       1.00000000       2.06392532      -4.17986179      -0.05591251
H        3.54650160       4.76527001      12.83772616        0       1.00000000      -0.41269171      -0.24771579      -0.31151757
H        4.45232155       4.68540058       2.70658097        0       1.00000000       0.97446216       0.89509269       1.05909679
H        0.24310129       1.15400809      12.31135946        0       1.00000000      -0.59154665       1.29128377       1.40439208
H        2.66222416       1.39030539       0.63781296        0       1.00000000       0.90079350      -0.11891233       2.13314628
18
Lattice="5.612310241546866 0.0 0.0 0.0 4.860403243099165 0.0 0.0 0.0 14.582432123328676" Properties=species:S:1:pos:R:3:tags:I:1:masses:R:1:momenta:R:3 KEmax=23.26679191048647 iter=799 volume=397.78090899293073 ns_energy=11.0392854408478 last_walked_iter_clone=767 ns_P=0.0 config_n_global=799 ns_KE=18.124623276976536 pbc="T T F"
H        1.40307756       0.81006721       5.00000000        3       1.00000000       0.00000000       0.00000000       0.00000000
H        4.20923268       0.81006721       5.00000000        3       1.00000000       0.00000000       0.00000000       0.00000000
H        0.00000000       3.24026883       5.00000000        3       1.00000000       0.00000000       0.00000000       0.00000000
H        2.80615512       3.24026883       5.00000000        3       1.00000000       0.00000000       0.00000000       0.00000000
H        0.00000000       1.62013441       7.29121606        2       1.00000000       0.00000000       0.00000000       0.00000000
H        2.80615512       1.62013441       7.29121606        2       1.00000000       0.00000000       0.00000000       0.00000000
H        1.40307756       4.05033604       7.29121606        2       1.00000000       0.00000000       0.00000000       0.00000000
H        4.20923268       4.05033604       7.29121606        2       1.00000000       0.00000000       0.00000000       0.00000000
H        0.00000000       0.00000000       9.58243212        1       1.00000000       0.00000000       0.00000000       0.00000000
H        2.80615512       0.00000000       9.58243212        1       1.00000000       0.00000000       0.00000000       0.00000000
H        1.40307756       2.43020162       9.58243212        1       1.00000000       0.00000000       0.00000000       0.00000000
H        4.20923268       2.43020162       9.58243212        1       1.00000000       0.00000000       0.00000000       0.00000000
H        5.05830808       4.62736959       1.53821504        0       1.00000000      -0.00494680      -1.26513992      -0.26073126
H        2.52448211       4.45759366       0.62484156        0       1.00000000      -3.02908205      -2.72756843      -0.81867495
H        5.46859647       0.85457763      12.56725484        0       1.00000000      -0.77484751       0.39007515      -2.86171233
H        4.99587398       1.64209651       0.26375201        0       1.00000000       1.04245311      -0.96336653       0.10559058
H        1.28893401       3.24943884      13.95263817        0       1.00000000       0.73596350      -1.97718898      -0.99498180
H        3.26975722       3.46463126       2.45346359        0       1.00000000      -0.00673979      -0.12691112      -0.93302150
18
Lattice="5.612310241546866 0.0 0.0 0.0 4.860403243099165 0.0 0.0 0.0 14.582432123328676" Properties=species:S:1:pos:R:3:tags:I:1:masses:R:1:momenta:R:3 KEmax=23.26679191048647 iter=899 volume=397.78090899293073 ns_energy=9.861489153183559 last_walked_iter_clone=863 ns_P=0.0 config_n_global=899 ns_KE=17.261268682468927 pbc="T T F"
H        1.40307756       0.81006721       5.00000000        3       1.00000000       0.00000000       0.00000000       0.00000000
H        4.20923268       0.81006721       5.00000000        3       1.00000000       0.00000000       0.00000000       0.00000000
H        0.00000000       3.24026883       5.00000000        3       1.00000000       0.00000000       0.00000000       0.00000000
H        2.80615512       3.24026883       5.00000000        3       1.00000000       0.00000000       0.00000000       0.00000000
H        0.00000000       1.62013441       7.29121606        2       1.00000000       0.00000000       0.00000000       0.00000000
H        2.80615512       1.62013441       7.29121606        2       1.00000000       0.00000000       0.00000000       0.00000000
H        1.40307756       4.05033604       7.29121606        2       1.00000000       0.00000000       0.00000000       0.00000000
H        4.20923268       4.05033604       7.29121606        2       1.00000000       0.00000000       0.00000000       0.00000000
H        0.00000000       0.00000000       9.58243212        1       1.00000000       0.00000000       0.00000000       0.00000000
H        2.80615512       0.00000000       9.58243212        1       1.00000000       0.00000000       0.00000000       0.00000000
H        1.40307756       2.43020162       9.58243212        1       1.00000000       0.00000000       0.00000000       0.00000000
H        4.20923268       2.43020162       9.58243212        1       1.00000000       0.00000000       0.00000000       0.00000000
H        0.35362056       2.16448546       2.01415596        0       1.00000000      -0.03753265      -1.05232119       2.83331161
H        5.09976682       3.98384981       2.59938475        0       1.00000000      -0.42957891       3.10314009      -0.82614523
H        0.79517384       4.76581414      12.70273262        0       1.00000000       1.71683723      -0.27268356      -0.27835827
H        3.65337152       2.95707875       0.59782737        0       1.00000000       1.71496811       0.25012428      -1.67733944
H        3.26129474       1.25716228      13.57612735        0       1.00000000       0.86805883       0.03008836      -0.58086321
H        2.81765463       0.45088331       1.80825024        0       1.00000000       1.15673455       0.14432661      -1.87679195
18
Lattice="5.612310241546866 0.0 0.0 0.0 4.860403243099165 0.0 0.0 0.0 14.582432123328676" Properties=species:S:1:pos:R:3:tags:I:1:masses:R:1:momenta:R:3 KEmax=23.26679191048647 iter=999 volume=397.78090899293073 ns_energy=8.852993828392542 last_walked_iter_clone=657 ns_P=0.0 config_n_global=999 ns_KE=13.621176698339138 pbc="T T F"
H        1.40307756       0.81006721       5.00000000        3       1.00000000       0.00000000       0.00000000       0.00000000
H        4.20923268       0.81006721       5.00000000        3       1.00000000       0.00000000       0.00000000       0.00000000
H        0.00000000       3.24026883       5.00000000        3       1.00000000       0.00000000       0.00000000       0.00000000
H        2.80615512       3.24026883       5.00000000        3       1.00000000       0.00000000       0.00000000       0.00000000
H        0.00000000       1.62013441       7.29121606        2       1.00000000       0.00000000       0.00000000       0.00000000
H        2.80615512       1.62013441       7.29121606        2       1.00000000       0.00000000       0.00000000       0.00000000
H        1.40307756       4.05033604       7.29121606        2       1.00000000       0.00000000       0.00000000       0.00000000
H        4.20923268       4.05033604       7.29121606        2       1.00000000       0.00000000       0.00000000       0.00000000
H        0.00000000       0.00000000       9.58243212        1       1.00000000       0.00000000       0.00000000       0.00000000
H        2.80615512       0.00000000       9.58243212        1       1.00000000       0.00000000       0.00000000       0.00000000
H        1.40307756       2.43020162       9.58243212        1       1.00000000       0.00000000       0.00000000       0.00000000
H        4.20923268       2.43020162       9.58243212        1       1.00000000       0.00000000       0.00000000       0.00000000
H        1.99726313       0.56463847       0.68531920        0       1.00000000      -0.88772038      -0.39093572      -0.89517399
H        5.07416774       1.30453389       3.21227582        0       1.00000000      -0.55088030       1.47419918       1.11785074
H        3.37159023       1.54982330      13.47471463        0       1.00000000      -1.51421591      -1.09567163      -0.23269441
H        4.19977252       3.82687496       0.02316074        0       1.00000000      -0.09454867      -1.47914333      -0.47574771
H        1.48196370       0.24177763      14.39855354        0       1.00000000      -0.69025741      -1.69731349       0.00558737
H        2.90541651       0.68596873       3.05437954        0       1.00000000      -2.67205846      -1.66352161       1.59330562
18
Lattice="5.612310241546866 0.0 0.0 0.0 4.860403243099165 0.0 0.0 0.0 14.582432123328676" Properties=species:S:1:pos:R:3:tags:I:1:masses:R:1:momenta:R:3 KEmax=23.26679191048647 iter=1099 volume=397.78090899293073 ns_energy=7.860204141751971 last_walked_iter_clone=1015 ns_P=0.0 config_n_global=1099 ns_KE=9.66066473827462 pbc="T T F"
H        1.40307756       0.81006721       5.00000000        3       1.00000000       0.00000000       0.00000000       0.00000000
H        4.20923268       0.81006721       5.00000000        3       1.00000000       0.00000000       0.00000000       0.00000000
H        0.00000000       3.24026883       5.00000000        3       1.00000000       0.00000000       0.00000000       0.00000000
H        2.80615512       3.24026883       5.00000000        3       1.00000000       0.00000000       0.00000000       0.00000000
H        0.00000000       1.62013441       7.29121606        2       1.00000000       0.00000000       0.00000000       0.00000000
H        2.80615512       1.62013441       7.29121606        2       1.00000000       0.00000000       0.00000000       0.00000000
H        1.40307756       4.05033604       7.29121606        2       1.00000000       0.00000000       0.00000000       0.00000000
H        4.20923268       4.05033604       7.29121606        2       1.00000000       0.00000000       0.00000000       0.00000000
H        0.00000000       0.00000000       9.58243212        1       1.00000000       0.00000000       0.00000000       0.00000000
H        2.80615512       0.00000000       9.58243212        1       1.00000000       0.00000000       0.00000000       0.00000000
H        1.40307756       2.43020162       9.58243212        1       1.00000000       0.00000000       0.00000000       0.00000000
H        4.20923268       2.43020162       9.58243212        1       1.00000000       0.00000000       0.00000000       0.00000000
H        2.04798103       1.28006091       2.93356875        0       1.00000000       0.43639830      -1.09279531       0.29839507
H        1.87290779       3.95663663       0.01020966        0       1.00000000      -0.81855011      -0.73497868       2.21428550
H        5.93625081       3.30489286      12.49598151        0       1.00000000       1.12354202      -1.58064822       0.12001743
H        2.42673481       1.27726550       0.12585724        0       1.00000000       0.47841782      -1.91507273       0.37252216
H        0.54976015       0.02115251      14.20849315        0       1.00000000      -0.04823822       0.73810824       1.75298921
H        5.30997138      -0.39664330       3.46366337        0       1.00000000      -0.41028085       0.36424743       0.05383814
18
Lattice="5.612310241546866 0.0 0.0 0.0 4.860403243099165 0.0 0.0 0.0 14.582432123328676" Properties=species:S:1:pos:R:3:tags:I:1:masses:R:1:momenta:R:3 KEmax=23.26679191048647 iter=1199 volume=397.78090899293073 ns_energy=6.807225899671544 last_walked_iter_clone=1066 ns_P=0.0 config_n_global=1199 ns_KE=12.9448793936842 pbc="T T F"