18
Lattice="5.612310241546866 0.0 0.0 0.0 4.860403243099165 0.0 0.0 0.0 14.582432123328676" Properties=species:S:1:pos:R:3:tags:I:1:masses:R:1:momenta:R:3:forces:R:3 KEmax=23.26679191048647 iter=116626 volume=397.78090899293073 ns_energy=-11.633830070642315 last_walked_iter_clone=114599 energy=-11.63383007064473 stress="0.022329486358476824 -4.349993900912113e-09 -9.197102158808339e-09 -4.349993900912113e-09 0.022668411099436424 -3.1416204085833193e-09 -9.197102158808339e-09 -3.1416204085833193e-09 0.012332643117221537" pbc="T T F"
H        1.40307756       0.81006721       5.00000000        3       1.00000000       0.00000000       0.00000000       0.00000000       0.00000000       0.00000000       0.00000000
H        4.20923268       0.81006721       5.00000000        3       1.00000000       0.00000000       0.00000000       0.00000000       0.00000000       0.00000000       0.00000000
H        0.00000000       3.24026883       5.00000000        3       1.00000000       0.00000000       0.00000000       0.00000000       0.00000000       0.00000000       0.00000000
H        2.80615512       3.24026883       5.00000000        3       1.00000000       0.00000000       0.00000000       0.00000000       0.00000000       0.00000000       0.00000000
H        0.00000000       1.62013441       7.29121606        2       1.00000000       0.00000000       0.00000000       0.00000000       0.00000000       0.00000000       0.00000000
H        2.80615512       1.62013441       7.29121606        2       1.00000000       0.00000000       0.00000000       0.00000000       0.00000000       0.00000000       0.00000000
H        1.40307756       4.05033604       7.29121606        2       1.00000000       0.00000000       0.00000000       0.00000000       0.00000000       0.00000000       0.00000000
H        4.20923268       4.05033604       7.29121606        2       1.00000000       0.00000000       0.00000000       0.00000000       0.00000000       0.00000000       0.00000000
H        0.00000000       0.00000000       9.58243212        1       1.00000000       0.00000000       0.00000000       0.00000000       0.00000000       0.00000000       0.00000000
H        2.80615512       0.00000000       9.58243212        1       1.00000000       0.00000000       0.00000000       0.00000000       0.00000000       0.00000000       0.00000000
H        1.40307756       2.43020162       9.58243212        1       1.00000000       0.00000000       0.00000000       0.00000000       0.00000000       0.00000000       0.00000000
H        4.20923268       2.43020162       9.58243212        1       1.00000000       0.00000000       0.00000000       0.00000000       0.00000000       0.00000000       0.00000000
H        5.61230918       1.62013369       2.77136696        0       1.00000000      -0.00000037       0.00000043      -0.00000017       0.00000041       0.00000018       0.00000083
H        1.40307714       4.05033553       2.77136713        0       1.00000000       0.00000053      -0.00000097      -0.00000196       0.00000147      -0.00000211      -0.00000045
H        4.20923186       0.81006724      11.81070481        0       1.00000000       0.00000077       0.00000034       0.00000033       0.00000107      -0.00000101      -0.00000094
H        4.20923226       4.05033578       2.77136754        0       1.00000000       0.00000042       0.00000050       0.00000051      -0.00000042       0.00000113      -0.00000116
H        1.40307658       0.81006696      11.81070479        0       1.00000000      -0.00000014       0.00000038      -0.00000037      -0.00000008      -0.00000010       0.00000122
H        2.80615471       1.62013398       2.77136720        0       1.00000000      -0.00000097       0.00000014      -0.00000044      -0.00000148      -0.00000065       0.00000009
18
Lattice="5.612310241546866 0.0 0.0 0.0 4.860403243099165 0.0 0.0 0.0 14.582432123328676" Properties=species:S:1:pos:R:3:tags:I:1:masses:R:1:momenta:R:3:forces:R:3 KEmax=23.26679191048647 iter=116626 volume=397.78090899293073 ns_energy=-11.633830070642398 last_walked_iter_clone=114946 energy=-11.63383007064473 stress="0.022329486358476824 -4.349993900912113e-09 -9.197102158808339e-09 -4.349993900912113e-09 0.022668411099436424 -3.1416204085833193e-09 -9.197102158808339e-09 -3.1416204085833193e-09 0.012332643117221537" pbc="T T F"
H        1.40307756       0.81006721       5.00000000        3       1.00000000       0.00000000       0.00000000       0.00000000       0.00000000       0.00000000       0.00000000
H        4.20923268       0.81006721       5.00000000        3       1.00000000       0.00000000       0.00000000       0.00000000       0.00000000       0.00000000       0.00000000
H        0.00000000       3.24026883       5.00000000        3       1.00000000       0.00000000       0.00000000       0.00000000       0.00000000       0.00000000       0.00000000
H        2.80615512       3.24026883       5.00000000        3       1.00000000       0.00000000       0.00000000       0.00000000       0.00000000       0.00000000       0.00000000
H        0.00000000       1.62013441       7.29121606        2       1.00000000       0.00000000       0.00000000       0.00000000       0.00000000       0.00000000       0.00000000
H        2.80615512       1.62013441       7.29121606        2       1.00000000       0.00000000       0.00000000       0.00000000       0.00000000       0.00000000       0.00000000
H        1.40307756       4.05033604       7.29121606        2       1.00000000       0.00000000       0.00000000       0.00000000       0.00000000       0.00000000       0.00000000
H        4.20923268       4.05033604       7.29121606        2       1.00000000       0.00000000       0.00000000       0.00000000       0.00000000       0.00000000       0.00000000
H        0.00000000       0.00000000       9.58243212        1       1.00000000       0.00000000       0.00000000       0.00000000       0.00000000       0.00000000       0.00000000
H        2.80615512       0.00000000       9.58243212        1       1.00000000       0.00000000       0.00000000       0.00000000       0.00000000       0.00000000       0.00000000
H        1.40307756       2.43020162       9.58243212        1       1.00000000       0.00000000       0.00000000       0.00000000       0.00000000       0.00000000       0.00000000
H        4.20923268       2.43020162       9.58243212        1       1.00000000       0.00000000       0.00000000       0.00000000       0.00000000       0.00000000       0.00000000
H        5.61231047       1.62013410       2.77136734        0       1.00000000       0.00000020       0.00000034      -0.00000031       0.00000041       0.00000018       0.00000083
H        1.40307755       4.05033547       2.77136711        0       1.00000000       0.00000043       0.00000015       0.00000033       0.00000147      -0.00000211      -0.00000045
H        4.20923203       0.81006808      11.81070560        0       1.00000000      -0.00000105       0.00000091       0.00000005       0.00000107      -0.00000101      -0.00000094
H        4.20923260       4.05033532       2.77136748        0       1.00000000      -0.00000030      -0.00000003      -0.00000010      -0.00000042       0.00000113      -0.00000116
H        1.40307724       0.81006707      11.81070522        0       1.00000000      -0.00000053      -0.00000017      -0.00000025      -0.00000008      -0.00000010       0.00000122
H        2.80615585       1.62013393       2.77136734        0       1.00000000      -0.00000203      -0.00000115       0.00000009      -0.00000148      -0.00000065       0.00000009
18
Lattice="5.612310241546866 0.0 0.0 0.0 4.860403243099165 0.0 0.0 0.0 14.582432123328676" Properties=species:S:1:pos:R:3:tags:I:1:masses:R:1:momenta:R:3:forces:R:3 KEmax=23.26679191048647 iter=116626 volume=397.78090899293073 ns_energy=-11.633830070641864 last_walked_iter_clone=114272 energy=-11.63383007064473 stress="0.022329486358476824 -4.349993900912113e-09 -9.197102158808339e-09 -4.349993900912113e-09 0.022668411099436424 -3.1416204085833193e-09 -9.197102158808339e-09 -3.1416204085833193e-09 0.012332643117221537" pbc="T T F"
H        1.40307756       0.81006721       5.00000000        3       1.00000000       0.00000000       0.00000000       0.00000000       0.00000000       0.00000000       0.00000000
H        4.20923268       0.81006721       5.00000000        3       1.00000000       0.00000000       0.00000000       0.00000000       0.00000000       0.00000000       0.00000000
H        0.00000000       3.24026883       5.00000000        3       1.00000000       0.00000000       0.00000000       0.00000000       0.00000000       0.00000000       0.00000000
H        2.80615512       3.24026883       5.00000000        3       1.00000000       0.00000000       0.00000000       0.00000000       0.00000000       0.00000000       0.00000000
H        0.00000000       1.62013441       7.29121606        2       1.00000000       0.00000000       0.00000000       0.00000000       0.00000000       0.00000000       0.00000000
H        2.80615512       1.62013441       7.29121606        2       1.00000000       0.00000000       0.00000000       0.00000000       0.00000000       0.00000000       0.00000000
H        1.40307756       4.05033604       7.29121606        2       1.00000000       0.00000000       0.00000000       0.00000000       0.00000000       0.00000000       0.00000000
H        4.20923268       4.05033604       7.29121606        2       1.00000000       0.00000000       0.00000000       0.00000000       0.00000000       0.00000000       0.00000000
H        0.00000000       0.00000000       9.58243212        1       1.00000000       0.00000000       0.00000000       0.00000000       0.00000000       0.00000000       0.00000000
H        2.80615512       0.00000000       9.58243212        1       1.00000000       0.00000000       0.00000000       0.00000000       0.00000000       0.00000000       0.00000000
H        1.40307756       2.43020162       9.58243212        1       1.00000000       0.00000000       0.00000000       0.00000000       0.00000000       0.00000000       0.00000000
H        4.20923268       2.43020162       9.58243212        1       1.00000000       0.00000000       0.00000000       0.00000000       0.00000000       0.00000000       0.00000000
H        0.00000099       1.62013377       2.77136713        0       1.00000000      -0.00000091      -0.00000039       0.00000066       0.00000041       0.00000018       0.00000083
H        1.40307785       4.05033633       2.77136670        0       1.00000000       0.00000009       0.00000073      -0.00000055       0.00000147      -0.00000211      -0.00000045
H        4.20923377       0.81006643      11.81070535        0       1.00000000      -0.00000125       0.00000077      -0.00000079       0.00000107      -0.00000101      -0.00000094
H        4.20923316       4.05033604       2.77136711        0       1.00000000       0.00000006      -0.00000016      -0.00000002      -0.00000042       0.00000113      -0.00000116
H        1.40307828       0.81006719      11.81070486        0       1.00000000       0.00000028      -0.00000023      -0.00000085      -0.00000008      -0.00000010       0.00000122
H        2.80615607       1.62013449       2.77136726        0       1.00000000       0.00000107       0.00000015       0.00000035      -0.00000148      -0.00000065       0.00000009
18
Lattice="5.612310241546866 0.0 0.0 0.0 4.860403243099165 0.0 0.0 0.0 14.582432123328676" Properties=species:S:1:pos:R:3:tags:I:1:masses:R:1:momenta:R:3:forces:R:3 KEmax=23.26679191048647 iter=116626 volume=397.78090899293073 ns_energy=-11.633830070641908 last_walked_iter_clone=115867 energy=-11.63383007064473 stress="0.022329486358476824 -4.349993900912113e-09 -9.197102158808339e-09 -4.349993900912113e-09 0.022668411099436424 -3.1416204085833193e-09 -9.197102158808339e-09 -3.1416204085833193e-09 0.012332643117221537" pbc="T T F"
H        1.40307756       0.81006721       5.00000000        3       1.00000000       0.00000000       0.00000000       0.00000000       0.00000000       0.00000000       0.00000000
H        4.20923268       0.81006721       5.00000000        3       1.00000000       0.00000000       0.00000000       0.00000000       0.00000000       0.00000000       0.00000000
H        0.00000000       3.24026883       5.00000000        3       1.00000000       0.00000000       0.00000000       0.00000000       0.00000000       0.00000000       0.00000000
H        2.80615512       3.24026883       5.00000000        3       1.00000000       0.00000000       0.00000000       0.00000000       0.00000000       0.00000000       0.00000000
H        0.00000000       1.62013441       7.29121606        2       1.00000000       0.00000000       0.00000000       0.00000000       0.00000000       0.00000000       0.00000000
H        2.80615512       1.62013441       7.29121606        2       1.00000000       0.00000000       0.00000000       0.00000000       0.00000000       0.00000000       0.00000000
H        1.40307756       4.05033604       7.29121606        2       1.00000000       0.00000000       0.00000000       0.00000000       0.00000000       0.00000000       0.00000000
H        4.20923268       4.05033604       7.29121606        2       1.00000000       0.00000000       0.00000000       0.00000000       0.00000000       0.00000000       0.00000000
H        0.00000000       0.00000000       9.58243212        1       1.00000000       0.00000000       0.00000000       0.00000000       0.00000000       0.00000000       0.00000000
H        2.80615512       0.00000000       9.58243212        1       1.00000000       0.00000000       0.00000000       0.00000000       0.00000000       0.00000000       0.00000000
H        1.40307756       2.43020162       9.58243212        1       1.00000000       0.00000000       0.00000000       0.00000000       0.00000000       0.00000000       0.00000000
H        4.20923268       2.43020162       9.58243212        1       1.00000000       0.00000000       0.00000000       0.00000000       0.00000000       0.00000000       0.00000000
H        0.00000061       1.62013422       2.77136696        0       1.00000000       0.00000169      -0.00000141       0.00000018       0.00000041       0.00000018       0.00000083
H        1.40307834       4.05033591       2.77136686        0       1.00000000       0.00000006       0.00000024      -0.00000054       0.00000147      -0.00000211      -0.00000045
H        4.20923359       0.81006723      11.81070495        0       1.00000000       0.00000016      -0.00000105       0.00000002       0.00000107      -0.00000101      -0.00000094
H        4.20923280       4.05033614       2.77136697        0       1.00000000      -0.00000029      -0.00000059      -0.00000014      -0.00000042       0.00000113      -0.00000116
H        1.40307796       0.81006747      11.81070533        0       1.00000000       0.00000018       0.00000127      -0.00000033      -0.00000008      -0.00000010       0.00000122
H        2.80615558       1.62013460       2.77136689        0       1.00000000      -0.00000083      -0.00000073      -0.00000011      -0.00000148      -0.00000065       0.00000009
18
Lattice="5.612310241546866 0.0 0.0 0.0 4.860403243099165 0.0 0.0 0.0 14.582432123328676" Properties=species:S:1:pos:R:3:tags:I:1:masses:R:1:momenta:R:3:forces:R:3 KEmax=23.26679191048647 iter=116626 volume=397.78090899293073 ns_energy=-11.633830070641915 last_walked_iter_clone=113825 energy=-11.63383007064473 stress="0.022329486358476824 -4.349993900912113e-09 -9.197102158808339e-09 -4.349993900912113e-09 0.022668411099436424 -3.1416204085833193e-09 -9.197102158808339e-09 -3.1416204085833193e-09 0.012332643117221537" pbc="T T F"
H        1.40307756       0.81006721       5.00000000        3       1.00000000       0.00000000       0.00000000       0.00000000       0.00000000       0.00000000       0.00000000
H        4.20923268       0.81006721       5.00000000        3       1.00000000       0.00000000       0.00000000       0.00000000       0.00000000       0.00000000       0.00000000
H        0.00000000       3.24026883       5.00000000        3       1.00000000       0.00000000       0.00000000       0.00000000       0.00000000       0.00000000       0.00000000
H        2.80615512       3.24026883       5.00000000        3       1.00000000       0.00000000       0.00000000       0.00000000       0.00000000       0.00000000       0.00000000
H        0.00000000       1.62013441       7.29121606        2       1.00000000       0.00000000       0.00000000       0.00000000       0.00000000       0.00000000       0.00000000
H        2.80615512       1.62013441       7.29121606        2       1.00000000       0.00000000       0.00000000       0.00000000       0.00000000       0.00000000       0.00000000
H        1.40307756       4.05033604       7.29121606        2       1.00000000       0.00000000       0.00000000       0.00000000       0.00000000       0.00000000       0.00000000
H        4.20923268       4.05033604       7.29121606        2       1.00000000       0.00000000       0.00000000       0.00000000       0.00000000       0.00000000       0.00000000
H        0.00000000       0.00000000       9.58243212        1       1.00000000       0.00000000       0.00000000       0.00000000       0.00000000       0.00000000       0.00000000
H        2.80615512       0.00000000       9.58243212        1       1.00000000       0.00000000       0.00000000       0.00000000       0.00000000       0.00000000       0.00000000
H        1.40307756       2.43020162       9.58243212        1       1.00000000       0.00000000       0.00000000       0.00000000       0.00000000       0.00000000       0.00000000
H        4.20923268       2.43020162       9.58243212        1       1.00000000       0.00000000       0.00000000       0.00000000       0.00000000       0.00000000       0.00000000
H        5.61231034       1.62013393       2.77136672        0       1.00000000      -0.00000006       0.00000046       0.00000005       0.00000041       0.00000018       0.00000083
H        1.40307752       4.05033485       2.77136690        0       1.00000000      -0.00000042       0.00000074       0.00000038       0.00000147      -0.00000211      -0.00000045
H        4.20923199       0.81006812      11.81070505        0       1.00000000       0.00000027      -0.00000069       0.00000069       0.00000107      -0.00000101      -0.00000094
H        4.20923219       4.05033609       2.77136705        0       1.00000000       0.00000048       0.00000011      -0.00000139      -0.00000042       0.00000113      -0.00000116
H        1.40307714       0.81006686      11.81070502        0       1.00000000       0.00000054       0.00000015      -0.00000074      -0.00000008      -0.00000010       0.00000122
H        2.80615468       1.62013363       2.77136710        0       1.00000000      -0.00000040      -0.00000063       0.00000122      -0.00000148      -0.00000065       0.00000009
18
Lattice="5.612310241546866 0.0 0.0 0.0 4.860403243099165 0.0 0.0 0.0 14.582432123328676" Properties=species:S:1:pos:R:3:tags:I:1:masses:R:1:momenta:R:3:forces:R:3 KEmax=23.26679191048647 iter=116626 volume=397.78090899293073 ns_energy=-11.633830070641917 last_walked_iter_clone=113823 energy=-11.63383007064473 stress="0.022329486358476824 -4.349993900912113e-09 -9.197102158808339e-09 -4.349993900912113e-09 0.022668411099436424 -3.1416204085833193e-09 -9.197102158808339e-09 -3.1416204085833193e-09 0.012332643117221537" pbc="T T F"
H        1.40307756       0.81006721       5.00000000        3       1.00000000       0.00000000       0.00000000       0.00000000       0.00000000       0.00000000       0.00000000
H        4.20923268       0.81006721       5.00000000        3       1.00000000       0.00000000       0.00000000       0.00000000       0.00000000       0.00000000       0.00000000
H        0.00000000       3.24026883       5.00000000        3       1.00000000       0.00000000       0.00000000       0.00000000       0.00000000       0.00000000       0.00000000
H        2.80615512       3.24026883       5.00000000        3       1.00000000       0.00000000       0.00000000       0.00000000       0.00000000       0.00000000       0.00000000
H        0.00000000       1.62013441       7.29121606        2       1.00000000       0.00000000       0.00000000       0.00000000       0.00000000       0.00000000       0.00000000
H        2.80615512       1.62013441       7.29121606        2       1.00000000       0.00000000       0.00000000       0.00000000       0.00000000       0.00000000       0.00000000
H        1.40307756       4.05033604       7.29121606        2       1.00000000       0.00000000       0.00000000       0.00000000       0.00000000       0.00000000       0.00000000
H        4.20923268       4.05033604       7.29121606        2       1.00000000       0.00000000       0.00000000       0.00000000       0.00000000       0.00000000       0.00000000
H        0.00000000       0.00000000       9.58243212        1       1.00000000       0.00000000       0.00000000       0.00000000       0.00000000       0.00000000       0.00000000
H        2.80615512       0.00000000       9.58243212        1       1.00000000       0.00000000       0.00000000       0.00000000       0.00000000       0.00000000       0.00000000
H        1.40307756       2.43020162       9.58243212        1       1.00000000       0.00000000       0.00000000       0.00000000       0.00000000       0.00000000       0.00000000
H        4.20923268       2.43020162       9.58243212        1       1.00000000       0.00000000       0.00000000       0.00000000       0.00000000       0.00000000       0.00000000
H       -0.00000055       1.62013508       2.77136726        0       1.00000000       0.00000043       0.00000012       0.00000031       0.00000041       0.00000018       0.00000083
H        1.40307685       4.05033664       2.77136640        0       1.00000000       0.00000001      -0.00000035       0.00000005       0.00000147      -0.00000211      -0.00000045
H        4.20923261       0.81006819      11.81070552        0       1.00000000      -0.00000018       0.00000044      -0.00000081       0.00000107      -0.00000101      -0.00000094
H        4.20923245       4.05033723       2.77136729        0       1.00000000      -0.00000096       0.00000118       0.00000009      -0.00000042       0.00000113      -0.00000116
H        1.40307684       0.81006866      11.81070517        0       1.00000000       0.00000002      -0.00000056      -0.00000028      -0.00000008      -0.00000010       0.00000122
H        2.80615438       1.62013540       2.77136707        0       1.00000000       0.00000063      -0.00000061       0.00000073      -0.00000148      -0.00000065       0.00000009
18
Lattice="5.612310241546866 0.0 0.0 0.0 4.860403243099165 0.0 0.0 0.0 14.582432123328676" Properties=species:S:1:pos:R:3:tags:I:1:masses:R:1:momenta:R:3:forces:R:3 KEmax=23.26679191048647 iter=116626 volume=397.78090899293073 ns_energy=-11.633830070642052 last_walked_iter_clone=114944 energy=-11.63383007064473 stress="0.022329486358476824 -4.349993900912113e-09 -9.197102158808339e-09 -4.349993900912113e-09 0.022668411099436424 -3.1416204085833193e-09 -9.197102158808339e-09 -3.1416204085833193e-09 0.012332643117221537" pbc="T T F"
H        1.40307756       0.81006721       5.00000000        3       1.00000000       0.00000000       0.00000000       0.00000000       0.00000000       0.00000000       0.00000000
H        4.20923268       0.81006721       5.00000000        3       1.00000000       0.00000000       0.00000000       0.00000000       0.00000000       0.00000000       0.00000000
H        0.00000000       3.24026883       5.00000000        3       1.00000000       0.00000000       0.00000000       0.00000000       0.00000000       0.00000000       0.00000000
H        2.80615512       3.24026883       5.00000000        3       1.00000000       0.00000000       0.00000000       0.00000000       0.00000000       0.00000000       0.00000000
H        0.00000000       1.62013441       7.29121606        2       1.00000000       0.00000000       0.00000000       0.00000000       0.00000000       0.00000000       0.00000000
H        2.80615512       1.62013441       7.29121606        2       1.00000000       0.00000000       0.00000000       0.00000000       0.00000000       0.00000000       0.00000000
H        1.40307756       4.05033604       7.29121606        2       1.00000000       0.00000000       0.00000000       0.00000000       0.00000000       0.00000000       0.00000000
H        4.20923268       4.05033604       7.29121606        2       1.00000000       0.00000000       0.00000000       0.00000000       0.00000000       0.00000000       0.00000000
H        0.00000000       0.00000000       9.58243212        1       1.00000000       0.00000000       0.00000000       0.00000000       0.00000000       0.00000000       0.00000000
H        2.80615512       0.00000000       9.58243212        1       1.00000000       0.00000000       0.00000000       0.00000000       0.00000000       0.00000000       0.00000000
H        1.40307756       2.43020162       9.58243212        1       1.00000000       0.00000000       0.00000000       0.00000000       0.00000000       0.00000000       0.00000000
H        4.20923268       2.43020162       9.58243212        1       1.00000000       0.00000000       0.00000000       0.00000000       0.00000000       0.00000000       0.00000000
H        0.00000026       1.62013369       2.77136692        0       1.00000000       0.00000116       0.00000029      -0.00000119       0.00000041       0.00000018       0.00000083
H        1.40307730       4.05033553       2.77136728        0       1.00000000      -0.00000071       0.00000000       0.00000061       0.00000147      -0.00000211      -0.00000045
H        4.20923264       0.81006714      11.81070488        0       1.00000000      -0.00000012      -0.00000003       0.00000011       0.00000107      -0.00000101      -0.00000094
H        4.20923236       4.05033566       2.77136804        0       1.00000000       0.00000060      -0.00000114       0.00000080      -0.00000042       0.00000113      -0.00000116
H        1.40307784       0.81006839      11.81070486        0       1.00000000      -0.00000081      -0.00000015      -0.00000052      -0.00000008      -0.00000010       0.00000122
H        2.80615533       1.62013413       2.77136683        0       1.00000000       0.00000063      -0.00000018      -0.00000106      -0.00000148      -0.00000065       0.00000009
18
Lattice="5.612310241546866 0.0 0.0 0.0 4.860403243099165 0.0 0.0 0.0 14.582432123328676" Properties=species:S:1:pos:R:3:tags:I:1:masses:R:1:momenta:R:3:forces:R:3 KEmax=23.26679191048647 iter=116626 volume=397.78090899293073 ns_energy=-11.63383007064187 last_walked_iter_clone=113389 energy=-11.63383007064473 stress="0.022329486358476824 -4.349993900912113e-09 -9.197102158808339e-09 -4.349993900912113e-09 0.022668411099436424 -3.1416204085833193e-09 -9.197102158808339e-09 -3.1416204085833193e-09 0.012332643117221537" pbc="T T F"
H        1.40307756       0.81006721       5.00000000        3       1.00000000       0.00000000       0.00000000       0.00000000       0.00000000       0.00000000       0.00000000
H        4.20923268       0.81006721       5.00000000        3       1.00000000       0.00000000       0.00000000       0.00000000       0.00000000       0.00000000       0.00000000
H        0.00000000       3.24026883       5.00000000        3       1.00000000       0.00000000       0.00000000       0.00000000       0.00000000       0.00000000       0.00000000
H        2.80615512       3.24026883       5.00000000        3       1.00000000       0.00000000       0.00000000       0.00000000       0.00000000       0.00000000       0.00000000
H        0.00000000       1.62013441       7.29121606        2       1.00000000       0.00000000       0.00000000       0.00000000       0.00000000       0.00000000       0.00000000
H        2.80615512       1.62013441       7.29121606        2       1.00000000       0.00000000       0.00000000       0.00000000       0.00000000       0.00000000       0.00000000
H        1.40307756       4.05033604       7.29121606        2       1.00000000       0.00000000       0.00000000       0.00000000       0.00000000       0.00000000       0.00000000
H        4.20923268       4.05033604       7.29121606        2       1.00000000       0.00000000       0.00000000       0.00000000       0.00000000       0.00000000       0.00000000
H        0.00000000       0.00000000       9.58243212        1       1.00000000       0.00000000       0.00000000       0.00000000       0.00000000       0.00000000       0.00000000
H        2.80615512       0.00000000       9.58243212        1       1.00000000       0.00000000       0.00000000       0.00000000       0.00000000       0.00000000       0.00000000
H        1.40307756       2.43020162       9.58243212        1       1.00000000       0.00000000       0.00000000       0.00000000       0.00000000       0.00000000       0.00000000
H        4.20923268       2.43020162       9.58243212        1       1.00000000       0.00000000       0.00000000       0.00000000       0.00000000       0.00000000       0.00000000
H        5.61231052       1.62013423       2.77136689        0       1.00000000      -0.00000081       0.00000061       0.00000037       0.00000041       0.00000018       0.00000083
H        1.40307809       4.05033638       2.77136686        0       1.00000000      -0.00000094      -0.00000001      -0.00000046       0.00000147      -0.00000211      -0.00000045
H        4.20923337       0.81006749      11.81070510        0       1.00000000      -0.00000059      -0.00000087      -0.00000130       0.00000107      -0.00000101      -0.00000094