18
Lattice="5.612310241546866 0.0 0.0 0.0 4.860403243099165 0.0 0.0 0.0 14.582432123328676" Properties=species:S:1:pos:R:3:tags:I:1:masses:R:1:momenta:R:3:forces:R:3 KEmax=23.26679191048647 iter=119999 volume=397.78090899293073 ns_energy=-11.633830070642315 last_walked_iter_clone=114599 energy=-11.633829605789415 stress="0.022329450839367604 -6.704733566330034e-09 2.293886081474586e-08 -6.704733566330034e-09 0.022668416158046656 -2.6289846877555105e-09 2.293886081474586e-08 -2.6289846877555105e-09 0.012332649303959805" pbc="T T F"
H        1.40307756       0.81006721       5.00000000        3       1.00000000       0.00000000       0.00000000       0.00000000       0.00000000       0.00000000       0.00000000
H        4.20923268       0.81006721       5.00000000        3       1.00000000       0.00000000       0.00000000       0.00000000       0.00000000       0.00000000       0.00000000
H        0.00000000       3.24026883       5.00000000        3       1.00000000       0.00000000       0.00000000       0.00000000       0.00000000       0.00000000       0.00000000
H        2.80615512       3.24026883       5.00000000        3       1.00000000       0.00000000       0.00000000       0.00000000       0.00000000       0.00000000       0.00000000
H        0.00000000       1.62013441       7.29121606        2       1.00000000       0.00000000       0.00000000       0.00000000       0.00000000       0.00000000       0.00000000
H        2.80615512       1.62013441       7.29121606        2       1.00000000       0.00000000       0.00000000       0.00000000       0.00000000       0.00000000       0.00000000
H        1.40307756       4.05033604       7.29121606        2       1.00000000       0.00000000       0.00000000       0.00000000       0.00000000       0.00000000       0.00000000
H        4.20923268       4.05033604       7.29121606        2       1.00000000       0.00000000       0.00000000       0.00000000       0.00000000       0.00000000       0.00000000
H        0.00000000       0.00000000       9.58243212        1       1.00000000       0.00000000       0.00000000       0.00000000       0.00000000       0.00000000       0.00000000
H        2.80615512       0.00000000       9.58243212        1       1.00000000       0.00000000       0.00000000       0.00000000       0.00000000       0.00000000       0.00000000
H        1.40307756       2.43020162       9.58243212        1       1.00000000       0.00000000       0.00000000       0.00000000       0.00000000       0.00000000       0.00000000
H        4.20923268       2.43020162       9.58243212        1       1.00000000       0.00000000       0.00000000       0.00000000       0.00000000       0.00000000       0.00000000
H        5.61230918       1.62013369       2.77136696        0       1.00000000      -0.00000037       0.00000043      -0.00000017       0.00100205       0.00075942       0.00000380
H        1.40307714       4.05033553       2.77136713        0       1.00000000       0.00000053      -0.00000097      -0.00000196      -0.00054985      -0.00079804      -0.00000124
H        4.20923186       0.81006724      11.81070481        0       1.00000000       0.00000077       0.00000034       0.00000033       0.00026428       0.00000028       0.00000291
H        4.20923226       4.05033578       2.77136754        0       1.00000000       0.00000042       0.00000050       0.00000051       0.00055150      -0.00072329      -0.00000124
H        1.40307658       0.81006696      11.81070479        0       1.00000000      -0.00000014       0.00000038      -0.00000037      -0.00026481       0.00000044      -0.00000052
H        2.80615471       1.62013398       2.77136720        0       1.00000000      -0.00000097       0.00000014      -0.00000044      -0.00100170       0.00076234       0.00000081
18
Lattice="5.612310241546866 0.0 0.0 0.0 4.860403243099165 0.0 0.0 0.0 14.582432123328676" Properties=species:S:1:pos:R:3:tags:I:1:masses:R:1:momenta:R:3:forces:R:3 KEmax=23.26679191048647 iter=119999 volume=397.78090899293073 ns_energy=-11.633830070642398 last_walked_iter_clone=114946 energy=-11.633829605789415 stress="0.022329450839367604 -6.704733566330034e-09 2.293886081474586e-08 -6.704733566330034e-09 0.022668416158046656 -2.6289846877555105e-09 2.293886081474586e-08 -2.6289846877555105e-09 0.012332649303959805" pbc="T T F"
H        1.40307756       0.81006721       5.00000000        3       1.00000000       0.00000000       0.00000000       0.00000000       0.00000000       0.00000000       0.00000000
H        4.20923268       0.81006721       5.00000000        3       1.00000000       0.00000000       0.00000000       0.00000000       0.00000000       0.00000000       0.00000000
H        0.00000000       3.24026883       5.00000000        3       1.00000000       0.00000000       0.00000000       0.00000000       0.00000000       0.00000000       0.00000000
H        2.80615512       3.24026883       5.00000000        3       1.00000000       0.00000000       0.00000000       0.00000000       0.00000000       0.00000000       0.00000000
H        0.00000000       1.62013441       7.29121606        2       1.00000000       0.00000000       0.00000000       0.00000000       0.00000000       0.00000000       0.00000000
H        2.80615512       1.62013441       7.29121606        2       1.00000000       0.00000000       0.00000000       0.00000000       0.00000000       0.00000000       0.00000000
H        1.40307756       4.05033604       7.29121606        2       1.00000000       0.00000000       0.00000000       0.00000000       0.00000000       0.00000000       0.00000000
H        4.20923268       4.05033604       7.29121606        2       1.00000000       0.00000000       0.00000000       0.00000000       0.00000000       0.00000000       0.00000000
H        0.00000000       0.00000000       9.58243212        1       1.00000000       0.00000000       0.00000000       0.00000000       0.00000000       0.00000000       0.00000000
H        2.80615512       0.00000000       9.58243212        1       1.00000000       0.00000000       0.00000000       0.00000000       0.00000000       0.00000000       0.00000000
H        1.40307756       2.43020162       9.58243212        1       1.00000000       0.00000000       0.00000000       0.00000000       0.00000000       0.00000000       0.00000000
H        4.20923268       2.43020162       9.58243212        1       1.00000000       0.00000000       0.00000000       0.00000000       0.00000000       0.00000000       0.00000000
H        5.61231047       1.62013410       2.77136734        0       1.00000000       0.00000020       0.00000034      -0.00000031       0.00100205       0.00075942       0.00000380
H        1.40307755       4.05033547       2.77136711        0       1.00000000       0.00000043       0.00000015       0.00000033      -0.00054985      -0.00079804      -0.00000124
H        4.20923203       0.81006808      11.81070560        0       1.00000000      -0.00000105       0.00000091       0.00000005       0.00026428       0.00000028       0.00000291
H        4.20923260       4.05033532       2.77136748        0       1.00000000      -0.00000030      -0.00000003      -0.00000010       0.00055150      -0.00072329      -0.00000124
H        1.40307724       0.81006707      11.81070522        0       1.00000000      -0.00000053      -0.00000017      -0.00000025      -0.00026481       0.00000044      -0.00000052
H        2.80615585       1.62013393       2.77136734        0       1.00000000      -0.00000203      -0.00000115       0.00000009      -0.00100170       0.00076234       0.00000081
18
Lattice="5.612310241546866 0.0 0.0 0.0 4.860403243099165 0.0 0.0 0.0 14.582432123328676" Properties=species:S:1:pos:R:3:tags:I:1:masses:R:1:momenta:R:3:forces:R:3 KEmax=23.26679191048647 iter=119999 volume=397.78090899293073 ns_energy=-11.633830070642249 last_walked_iter_clone=119637 energy=-11.633829605789415 stress="0.022329450839367604 -6.704733566330034e-09 2.293886081474586e-08 -6.704733566330034e-09 0.022668416158046656 -2.6289846877555105e-09 2.293886081474586e-08 -2.6289846877555105e-09 0.012332649303959805" pbc="T T F"
H        1.40307756       0.81006721       5.00000000        3       1.00000000       0.00000000       0.00000000       0.00000000       0.00000000       0.00000000       0.00000000
H        4.20923268       0.81006721       5.00000000        3       1.00000000       0.00000000       0.00000000       0.00000000       0.00000000       0.00000000       0.00000000
H        0.00000000       3.24026883       5.00000000        3       1.00000000       0.00000000       0.00000000       0.00000000       0.00000000       0.00000000       0.00000000
H        2.80615512       3.24026883       5.00000000        3       1.00000000       0.00000000       0.00000000       0.00000000       0.00000000       0.00000000       0.00000000
H        0.00000000       1.62013441       7.29121606        2       1.00000000       0.00000000       0.00000000       0.00000000       0.00000000       0.00000000       0.00000000
H        2.80615512       1.62013441       7.29121606        2       1.00000000       0.00000000       0.00000000       0.00000000       0.00000000       0.00000000       0.00000000
H        1.40307756       4.05033604       7.29121606        2       1.00000000       0.00000000       0.00000000       0.00000000       0.00000000       0.00000000       0.00000000
H        4.20923268       4.05033604       7.29121606        2       1.00000000       0.00000000       0.00000000       0.00000000       0.00000000       0.00000000       0.00000000
H        0.00000000       0.00000000       9.58243212        1       1.00000000       0.00000000       0.00000000       0.00000000       0.00000000       0.00000000       0.00000000
H        2.80615512       0.00000000       9.58243212        1       1.00000000       0.00000000       0.00000000       0.00000000       0.00000000       0.00000000       0.00000000
H        1.40307756       2.43020162       9.58243212        1       1.00000000       0.00000000       0.00000000       0.00000000       0.00000000       0.00000000       0.00000000
H        4.20923268       2.43020162       9.58243212        1       1.00000000       0.00000000       0.00000000       0.00000000       0.00000000       0.00000000       0.00000000
H        5.61231113       1.62013441       2.77136737        0       1.00000000      -0.00000104       0.00000116       0.00000055       0.00100205       0.00075942       0.00000380
H        1.40307791       4.05033585       2.77136670        0       1.00000000      -0.00000113      -0.00000037      -0.00000030      -0.00054985      -0.00079804      -0.00000124
H        4.20923386       0.81006769      11.81070489        0       1.00000000      -0.00000130      -0.00000006      -0.00000012       0.00026428       0.00000028       0.00000291
H        4.20923337       4.05033589       2.77136676        0       1.00000000       0.00000032      -0.00000001       0.00000039       0.00055150      -0.00072329      -0.00000124
H        1.40307857       0.81006633      11.81070554        0       1.00000000      -0.00000043      -0.00000024       0.00000020      -0.00026481       0.00000044      -0.00000052
H        2.80615605       1.62013431       2.77136675        0       1.00000000      -0.00000076      -0.00000047       0.00000022      -0.00100170       0.00076234       0.00000081
18
Lattice="5.612310241546866 0.0 0.0 0.0 4.860403243099165 0.0 0.0 0.0 14.582432123328676" Properties=species:S:1:pos:R:3:tags:I:1:masses:R:1:momenta:R:3:forces:R:3 KEmax=23.26679191048647 iter=119999 volume=397.78090899293073 ns_energy=-11.633830070642254 last_walked_iter_clone=119916 energy=-11.633829605789415 stress="0.022329450839367604 -6.704733566330034e-09 2.293886081474586e-08 -6.704733566330034e-09 0.022668416158046656 -2.6289846877555105e-09 2.293886081474586e-08 -2.6289846877555105e-09 0.012332649303959805" pbc="T T F"
H        1.40307756       0.81006721       5.00000000        3       1.00000000       0.00000000       0.00000000       0.00000000       0.00000000       0.00000000       0.00000000
H        4.20923268       0.81006721       5.00000000        3       1.00000000       0.00000000       0.00000000       0.00000000       0.00000000       0.00000000       0.00000000
H        0.00000000       3.24026883       5.00000000        3       1.00000000       0.00000000       0.00000000       0.00000000       0.00000000       0.00000000       0.00000000
H        2.80615512       3.24026883       5.00000000        3       1.00000000       0.00000000       0.00000000       0.00000000       0.00000000       0.00000000       0.00000000
H        0.00000000       1.62013441       7.29121606        2       1.00000000       0.00000000       0.00000000       0.00000000       0.00000000       0.00000000       0.00000000
H        2.80615512       1.62013441       7.29121606        2       1.00000000       0.00000000       0.00000000       0.00000000       0.00000000       0.00000000       0.00000000
H        1.40307756       4.05033604       7.29121606        2       1.00000000       0.00000000       0.00000000       0.00000000       0.00000000       0.00000000       0.00000000
H        4.20923268       4.05033604       7.29121606        2       1.00000000       0.00000000       0.00000000       0.00000000       0.00000000       0.00000000       0.00000000
H        0.00000000       0.00000000       9.58243212        1       1.00000000       0.00000000       0.00000000       0.00000000       0.00000000       0.00000000       0.00000000
H        2.80615512       0.00000000       9.58243212        1       1.00000000       0.00000000       0.00000000       0.00000000       0.00000000       0.00000000       0.00000000
H        1.40307756       2.43020162       9.58243212        1       1.00000000       0.00000000       0.00000000       0.00000000       0.00000000       0.00000000       0.00000000
H        4.20923268       2.43020162       9.58243212        1       1.00000000       0.00000000       0.00000000       0.00000000       0.00000000       0.00000000       0.00000000
H        5.61231106       1.62013450       2.77136713        0       1.00000000       0.00000087       0.00000068      -0.00000006       0.00100205       0.00075942       0.00000380
H        1.40307786       4.05033614       2.77136669        0       1.00000000      -0.00000115      -0.00000037       0.00000034      -0.00054985      -0.00079804      -0.00000124
H        4.20923286       0.81006727      11.81070526        0       1.00000000      -0.00000113       0.00000054       0.00000161       0.00026428       0.00000028       0.00000291
H        4.20923299       4.05033663       2.77136724        0       1.00000000      -0.00000076      -0.00000046      -0.00000017       0.00055150      -0.00072329      -0.00000124
H        1.40307756       0.81006771      11.81070505        0       1.00000000      -0.00000056       0.00000039       0.00000009      -0.00026481       0.00000044      -0.00000052
H        2.80615626       1.62013506       2.77136742        0       1.00000000      -0.00000045      -0.00000012      -0.00000047      -0.00100170       0.00076234       0.00000081
18
Lattice="5.612310241546866 0.0 0.0 0.0 4.860403243099165 0.0 0.0 0.0 14.582432123328676" Properties=species:S:1:pos:R:3:tags:I:1:masses:R:1:momenta:R:3:forces:R:3 KEmax=23.26679191048647 iter=119999 volume=397.78090899293073 ns_energy=-11.633830070642285 last_walked_iter_clone=117290 energy=-11.633829605789415 stress="0.022329450839367604 -6.704733566330034e-09 2.293886081474586e-08 -6.704733566330034e-09 0.022668416158046656 -2.6289846877555105e-09 2.293886081474586e-08 -2.6289846877555105e-09 0.012332649303959805" pbc="T T F"
H        1.40307756       0.81006721       5.00000000        3       1.00000000       0.00000000       0.00000000       0.00000000       0.00000000       0.00000000       0.00000000
H        4.20923268       0.81006721       5.00000000        3       1.00000000       0.00000000       0.00000000       0.00000000       0.00000000       0.00000000       0.00000000
H        0.00000000       3.24026883       5.00000000        3       1.00000000       0.00000000       0.00000000       0.00000000       0.00000000       0.00000000       0.00000000
H        2.80615512       3.24026883       5.00000000        3       1.00000000       0.00000000       0.00000000       0.00000000       0.00000000       0.00000000       0.00000000
H        0.00000000       1.62013441       7.29121606        2       1.00000000       0.00000000       0.00000000       0.00000000       0.00000000       0.00000000       0.00000000
H        2.80615512       1.62013441       7.29121606        2       1.00000000       0.00000000       0.00000000       0.00000000       0.00000000       0.00000000       0.00000000
H        1.40307756       4.05033604       7.29121606        2       1.00000000       0.00000000       0.00000000       0.00000000       0.00000000       0.00000000       0.00000000
H        4.20923268       4.05033604       7.29121606        2       1.00000000       0.00000000       0.00000000       0.00000000       0.00000000       0.00000000       0.00000000
H        0.00000000       0.00000000       9.58243212        1       1.00000000       0.00000000       0.00000000       0.00000000       0.00000000       0.00000000       0.00000000
H        2.80615512       0.00000000       9.58243212        1       1.00000000       0.00000000       0.00000000       0.00000000       0.00000000       0.00000000       0.00000000
H        1.40307756       2.43020162       9.58243212        1       1.00000000       0.00000000       0.00000000       0.00000000       0.00000000       0.00000000       0.00000000
H        4.20923268       2.43020162       9.58243212        1       1.00000000       0.00000000       0.00000000       0.00000000       0.00000000       0.00000000       0.00000000
H       -0.00000018       1.62013458       2.77136735        0       1.00000000      -0.00000035       0.00000054      -0.00000069       0.00100205       0.00075942       0.00000380
H        1.40307710       4.05033582       2.77136696        0       1.00000000       0.00000006       0.00000145      -0.00000110      -0.00054985      -0.00079804      -0.00000124
H        4.20923137       0.81006649      11.81070512        0       1.00000000       0.00000021       0.00000143       0.00000041       0.00026428       0.00000028       0.00000291
H        4.20923278       4.05033647       2.77136757        0       1.00000000       0.00000078       0.00000021       0.00000046       0.00055150      -0.00072329      -0.00000124
H        1.40307666       0.81006659      11.81070518        0       1.00000000       0.00000013       0.00000015       0.00000039      -0.00026481       0.00000044      -0.00000052
H        2.80615492       1.62013419       2.77136680        0       1.00000000       0.00000034      -0.00000040      -0.00000025      -0.00100170       0.00076234       0.00000081
18
Lattice="5.612310241546866 0.0 0.0 0.0 4.860403243099165 0.0 0.0 0.0 14.582432123328676" Properties=species:S:1:pos:R:3:tags:I:1:masses:R:1:momenta:R:3:forces:R:3 KEmax=23.26679191048647 iter=119999 volume=397.78090899293073 ns_energy=-11.633830070642427 last_walked_iter_clone=119628 energy=-11.633829605789415 stress="0.022329450839367604 -6.704733566330034e-09 2.293886081474586e-08 -6.704733566330034e-09 0.022668416158046656 -2.6289846877555105e-09 2.293886081474586e-08 -2.6289846877555105e-09 0.012332649303959805" pbc="T T F"
H        1.40307756       0.81006721       5.00000000        3       1.00000000       0.00000000       0.00000000       0.00000000       0.00000000       0.00000000       0.00000000
H        4.20923268       0.81006721       5.00000000        3       1.00000000       0.00000000       0.00000000       0.00000000       0.00000000       0.00000000       0.00000000
H        0.00000000       3.24026883       5.00000000        3       1.00000000       0.00000000       0.00000000       0.00000000       0.00000000       0.00000000       0.00000000
H        2.80615512       3.24026883       5.00000000        3       1.00000000       0.00000000       0.00000000       0.00000000       0.00000000       0.00000000       0.00000000
H        0.00000000       1.62013441       7.29121606        2       1.00000000       0.00000000       0.00000000       0.00000000       0.00000000       0.00000000       0.00000000
H        2.80615512       1.62013441       7.29121606        2       1.00000000       0.00000000       0.00000000       0.00000000       0.00000000       0.00000000       0.00000000
H        1.40307756       4.05033604       7.29121606        2       1.00000000       0.00000000       0.00000000       0.00000000       0.00000000       0.00000000       0.00000000
H        4.20923268       4.05033604       7.29121606        2       1.00000000       0.00000000       0.00000000       0.00000000       0.00000000       0.00000000       0.00000000
H        0.00000000       0.00000000       9.58243212        1       1.00000000       0.00000000       0.00000000       0.00000000       0.00000000       0.00000000       0.00000000
H        2.80615512       0.00000000       9.58243212        1       1.00000000       0.00000000       0.00000000       0.00000000       0.00000000       0.00000000       0.00000000
H        1.40307756       2.43020162       9.58243212        1       1.00000000       0.00000000       0.00000000       0.00000000       0.00000000       0.00000000       0.00000000
H        4.20923268       2.43020162       9.58243212        1       1.00000000       0.00000000       0.00000000       0.00000000       0.00000000       0.00000000       0.00000000
H        0.00000035       1.62013333       2.77136713        0       1.00000000      -0.00000010       0.00000005      -0.00000089       0.00100205       0.00075942       0.00000380
H        1.40307732       4.05033557       2.77136730        0       1.00000000      -0.00000023      -0.00000042       0.00000110      -0.00054985      -0.00079804      -0.00000124
H        4.20923308       0.81006637      11.81070555        0       1.00000000      -0.00000036      -0.00000038      -0.00000050       0.00026428       0.00000028       0.00000291
H        4.20923269       4.05033519       2.77136771        0       1.00000000      -0.00000028       0.00000096       0.00000018       0.00055150      -0.00072329      -0.00000124
H        1.40307802       0.81006588      11.81070433        0       1.00000000       0.00000122      -0.00000028      -0.00000004      -0.00026481       0.00000044      -0.00000052
H        2.80615553       1.62013377       2.77136698        0       1.00000000      -0.00000002      -0.00000010      -0.00000025      -0.00100170       0.00076234       0.00000081
18
Lattice="5.612310241546866 0.0 0.0 0.0 4.860403243099165 0.0 0.0 0.0 14.582432123328676" Properties=species:S:1:pos:R:3:tags:I:1:masses:R:1:momenta:R:3:forces:R:3 KEmax=23.26679191048647 iter=119999 volume=397.78090899293073 ns_energy=-11.633830070642384 last_walked_iter_clone=118876 energy=-11.633829605789415 stress="0.022329450839367604 -6.704733566330034e-09 2.293886081474586e-08 -6.704733566330034e-09 0.022668416158046656 -2.6289846877555105e-09 2.293886081474586e-08 -2.6289846877555105e-09 0.012332649303959805" pbc="T T F"
H        1.40307756       0.81006721       5.00000000        3       1.00000000       0.00000000       0.00000000       0.00000000       0.00000000       0.00000000       0.00000000
H        4.20923268       0.81006721       5.00000000        3       1.00000000       0.00000000       0.00000000       0.00000000       0.00000000       0.00000000       0.00000000
H        0.00000000       3.24026883       5.00000000        3       1.00000000       0.00000000       0.00000000       0.00000000       0.00000000       0.00000000       0.00000000
H        2.80615512       3.24026883       5.00000000        3       1.00000000       0.00000000       0.00000000       0.00000000       0.00000000       0.00000000       0.00000000
H        0.00000000       1.62013441       7.29121606        2       1.00000000       0.00000000       0.00000000       0.00000000       0.00000000       0.00000000       0.00000000
H        2.80615512       1.62013441       7.29121606        2       1.00000000       0.00000000       0.00000000       0.00000000       0.00000000       0.00000000       0.00000000
H        1.40307756       4.05033604       7.29121606        2       1.00000000       0.00000000       0.00000000       0.00000000       0.00000000       0.00000000       0.00000000
H        4.20923268       4.05033604       7.29121606        2       1.00000000       0.00000000       0.00000000       0.00000000       0.00000000       0.00000000       0.00000000
H        0.00000000       0.00000000       9.58243212        1       1.00000000       0.00000000       0.00000000       0.00000000       0.00000000       0.00000000       0.00000000
H        2.80615512       0.00000000       9.58243212        1       1.00000000       0.00000000       0.00000000       0.00000000       0.00000000       0.00000000       0.00000000
H        1.40307756       2.43020162       9.58243212        1       1.00000000       0.00000000       0.00000000       0.00000000       0.00000000       0.00000000       0.00000000
H        4.20923268       2.43020162       9.58243212        1       1.00000000       0.00000000       0.00000000       0.00000000       0.00000000       0.00000000       0.00000000
H        0.00000030       1.62013362       2.77136689        0       1.00000000      -0.00000072      -0.00000097      -0.00000141       0.00100205       0.00075942       0.00000380
H        1.40307729       4.05033551       2.77136722        0       1.00000000      -0.00000066      -0.00000037       0.00000074      -0.00054985      -0.00079804      -0.00000124
H        4.20923264       0.81006713      11.81070488        0       1.00000000      -0.00000035      -0.00000011       0.00000048       0.00026428       0.00000028       0.00000291
H        4.20923241       4.05033586       2.77136801        0       1.00000000       0.00000066       0.00000015      -0.00000081       0.00055150      -0.00072329      -0.00000124
H        1.40307767       0.81006845      11.81070486        0       1.00000000      -0.00000051       0.00000006      -0.00000032      -0.00026481       0.00000044      -0.00000052
H        2.80615533       1.62013409       2.77136683        0       1.00000000      -0.00000031      -0.00000064      -0.00000063      -0.00100170       0.00076234       0.00000081
18
Lattice="5.612310241546866 0.0 0.0 0.0 4.860403243099165 0.0 0.0 0.0 14.582432123328676" Properties=species:S:1:pos:R:3:tags:I:1:masses:R:1:momenta:R:3:forces:R:3 KEmax=23.26679191048647 iter=119999 volume=397.78090899293073 ns_energy=-11.63383007064231 last_walked_iter_clone=116695 energy=-11.633829605789415 stress="0.022329450839367604 -6.704733566330034e-09 2.293886081474586e-08 -6.704733566330034e-09 0.022668416158046656 -2.6289846877555105e-09 2.293886081474586e-08 -2.6289846877555105e-09 0.012332649303959805" pbc="T T F"
H        1.40307756       0.81006721       5.00000000        3       1.00000000       0.00000000       0.00000000       0.00000000       0.00000000       0.00000000       0.00000000
H        4.20923268       0.81006721       5.00000000        3       1.00000000       0.00000000       0.00000000       0.00000000       0.00000000       0.00000000       0.00000000
H        0.00000000       3.24026883       5.00000000        3       1.00000000       0.00000000       0.00000000       0.00000000       0.00000000       0.00000000       0.00000000
H        2.80615512       3.24026883       5.00000000        3       1.00000000       0.00000000       0.00000000       0.00000000       0.00000000       0.00000000       0.00000000
H        0.00000000       1.62013441       7.29121606        2       1.00000000       0.00000000       0.00000000       0.00000000       0.00000000       0.00000000       0.00000000
H        2.80615512       1.62013441       7.29121606        2       1.00000000       0.00000000       0.00000000       0.00000000       0.00000000       0.00000000       0.00000000
H        1.40307756       4.05033604       7.29121606        2       1.00000000       0.00000000       0.00000000       0.00000000       0.00000000       0.00000000       0.00000000
H        4.20923268       4.05033604       7.29121606        2       1.00000000       0.00000000       0.00000000       0.00000000       0.00000000       0.00000000       0.00000000
H        0.00000000       0.00000000       9.58243212        1       1.00000000       0.00000000       0.00000000       0.00000000       0.00000000       0.00000000       0.00000000
H        2.80615512       0.00000000       9.58243212        1       1.00000000       0.00000000       0.00000000       0.00000000       0.00000000       0.00000000       0.00000000
H        1.40307756       2.43020162       9.58243212        1       1.00000000       0.00000000       0.00000000       0.00000000       0.00000000       0.00000000       0.00000000
H        4.20923268       2.43020162       9.58243212        1       1.00000000       0.00000000       0.00000000       0.00000000       0.00000000       0.00000000       0.00000000
H        0.00000017       1.62013411       2.77136731        0       1.00000000      -0.00000004       0.00000086      -0.00000073       0.00100205       0.00075942       0.00000380
H        1.40307702       4.05033595       2.77136755        0       1.00000000      -0.00000042       0.00000023       0.00000136      -0.00054985      -0.00079804      -0.00000124
H        4.20923375       0.81006619      11.81070493        0       1.00000000      -0.00000065      -0.00000054      -0.00000015       0.00026428       0.00000028       0.00000291