24
Lattice="5.612310241546866 0.0 0.0 0.0 4.860403243099165 0.0 0.0 0.0 44.58243212332868" Properties=species:S:1:pos:R:3:tags:I:1:masses:R:1:momenta:R:3:forces:R:3 KEmax=31.022389213981967 iter=150191 volume=1216.1236359717223 set_wall=T ns_energy=-16.77563829215316 last_walked_iter_clone=149955 energy=-16.77574902988259 stress="0.02448610400321789 -6.388173673563086e-06 9.885872008465703e-06 -6.388173673563086e-06 0.02453877847799018 2.908115083936742e-05 9.885872008465703e-06 2.908115083936742e-05 0.009118264576592473" pbc="T T F"
H        1.40307756       0.81006721      20.00000000        3       1.00000000       0.00000000       0.00000000       0.00000000       0.00000000       0.00000000       0.00000000
H        4.20923268       0.81006721      20.00000000        3       1.00000000       0.00000000       0.00000000       0.00000000       0.00000000       0.00000000       0.00000000
H        0.00000000       3.24026883      20.00000000        3       1.00000000       0.00000000       0.00000000       0.00000000       0.00000000       0.00000000       0.00000000
H        2.80615512       3.24026883      20.00000000        3       1.00000000       0.00000000       0.00000000       0.00000000       0.00000000       0.00000000       0.00000000
H        0.00000000       1.62013441      22.29121606        2       1.00000000       0.00000000       0.00000000       0.00000000       0.00000000       0.00000000       0.00000000
H        2.80615512       1.62013441      22.29121606        2       1.00000000       0.00000000       0.00000000       0.00000000       0.00000000       0.00000000       0.00000000
H        1.40307756       4.05033604      22.29121606        2       1.00000000       0.00000000       0.00000000       0.00000000       0.00000000       0.00000000       0.00000000
H        4.20923268       4.05033604      22.29121606        2       1.00000000       0.00000000       0.00000000       0.00000000       0.00000000       0.00000000       0.00000000
H        0.00000000       0.00000000      24.58243212        1       1.00000000       0.00000000       0.00000000       0.00000000       0.00000000       0.00000000       0.00000000
H        2.80615512       0.00000000      24.58243212        1       1.00000000       0.00000000       0.00000000       0.00000000       0.00000000       0.00000000       0.00000000
H        1.40307756       2.43020162      24.58243212        1       1.00000000       0.00000000       0.00000000       0.00000000       0.00000000       0.00000000       0.00000000
H        4.20923268       2.43020162      24.58243212        1       1.00000000       0.00000000       0.00000000       0.00000000       0.00000000       0.00000000       0.00000000
H        1.40281230       2.43197105      28.99450229        0       1.00000000      -0.00408678      -0.00141296      -0.00114688       0.00623298       0.00306545       0.00308519
H        5.61070235       1.62004764      31.22213787        0       1.00000000       0.00011240      -0.00422111       0.00111453       0.00011019       0.01066618       0.00700048
H        5.60985682      -0.00134288      28.99397692        0       1.00000000       0.00067528      -0.00477978      -0.00323243      -0.00254855       0.00610331      -0.00549207
H        1.40358297       4.04822932      26.78863007        0       1.00000000       0.00328311       0.00118942      -0.00055761       0.00454953      -0.00647531      -0.00092824
H        2.80510284       1.61893354      31.22076732        0       1.00000000       0.00220733      -0.00147175      -0.00140435      -0.00022399      -0.00194133      -0.00356490
H        4.20808795       2.43264835      28.99261342        0       1.00000000       0.00099304      -0.00142321      -0.00053991      -0.00766061       0.00316208       0.00169581
H        1.40112737       4.04976160      31.22124647        0       1.00000000       0.00091487      -0.00020082      -0.00094057       0.00305848      -0.00677280       0.00542728
H        2.80520953      -0.00203168      28.99504889        0       1.00000000       0.00075998      -0.00267118       0.00256511       0.00687920      -0.00633445       0.00236137
H        2.80334227       1.61864022      26.78969740        0       1.00000000      -0.00032066      -0.00538596      -0.00000419      -0.00460298       0.00477924      -0.00382585
H        4.20649104       4.05267134      26.78742424        0       1.00000000       0.00127312      -0.00009342       0.00025468      -0.00368713      -0.00170631      -0.00387329
H        4.20735900       4.04928140      31.22177583        0       1.00000000       0.00451749      -0.00053539      -0.00246768      -0.00562291      -0.00626132       0.00319448
H        5.61249734       1.61986904      26.78945275        0       1.00000000       0.00178363       0.00005402      -0.00136317       0.00463397       0.00036602      -0.00591590
24
Lattice="5.612310241546866 0.0 0.0 0.0 4.860403243099165 0.0 0.0 0.0 44.58243212332868" Properties=species:S:1:pos:R:3:tags:I:1:masses:R:1:momenta:R:3:forces:R:3 KEmax=31.022389213981967 iter=150191 volume=1216.1236359717223 set_wall=T ns_energy=-16.77563938885078 last_walked_iter_clone=150080 energy=-16.77574902988259 stress="0.02448610400321789 -6.388173673563086e-06 9.885872008465703e-06 -6.388173673563086e-06 0.02453877847799018 2.908115083936742e-05 9.885872008465703e-06 2.908115083936742e-05 0.009118264576592473" pbc="T T F"
H        1.40307756       0.81006721      20.00000000        3       1.00000000       0.00000000       0.00000000       0.00000000       0.00000000       0.00000000       0.00000000
H        4.20923268       0.81006721      20.00000000        3       1.00000000       0.00000000       0.00000000       0.00000000       0.00000000       0.00000000       0.00000000
H        0.00000000       3.24026883      20.00000000        3       1.00000000       0.00000000       0.00000000       0.00000000       0.00000000       0.00000000       0.00000000
H        2.80615512       3.24026883      20.00000000        3       1.00000000       0.00000000       0.00000000       0.00000000       0.00000000       0.00000000       0.00000000
H        0.00000000       1.62013441      22.29121606        2       1.00000000       0.00000000       0.00000000       0.00000000       0.00000000       0.00000000       0.00000000
H        2.80615512       1.62013441      22.29121606        2       1.00000000       0.00000000       0.00000000       0.00000000       0.00000000       0.00000000       0.00000000
H        1.40307756       4.05033604      22.29121606        2       1.00000000       0.00000000       0.00000000       0.00000000       0.00000000       0.00000000       0.00000000
H        4.20923268       4.05033604      22.29121606        2       1.00000000       0.00000000       0.00000000       0.00000000       0.00000000       0.00000000       0.00000000
H        0.00000000       0.00000000      24.58243212        1       1.00000000       0.00000000       0.00000000       0.00000000       0.00000000       0.00000000       0.00000000
H        2.80615512       0.00000000      24.58243212        1       1.00000000       0.00000000       0.00000000       0.00000000       0.00000000       0.00000000       0.00000000
H        1.40307756       2.43020162      24.58243212        1       1.00000000       0.00000000       0.00000000       0.00000000       0.00000000       0.00000000       0.00000000
H        4.20923268       2.43020162      24.58243212        1       1.00000000       0.00000000       0.00000000       0.00000000       0.00000000       0.00000000       0.00000000
H        1.40273006       2.43223765      28.99695634        0       1.00000000       0.00099313       0.00014777       0.00085477       0.00623298       0.00306545       0.00308519
H        5.61077096       1.62267536      31.22258838        0       1.00000000      -0.00194672      -0.00072142      -0.00169295       0.00011019       0.01066618       0.00700048
H        5.61287445       0.00398289      28.99664017        0       1.00000000      -0.00127578      -0.00201623       0.00178286      -0.00254855       0.00610331      -0.00549207
H        1.40295836       4.05311694      26.79130193        0       1.00000000       0.00142794      -0.00064346       0.00472868       0.00454953      -0.00647531      -0.00092824
H        2.80348009       1.62156491      31.22115669        0       1.00000000       0.00345122      -0.00246191      -0.00062365      -0.00022399      -0.00194133      -0.00356490
H        4.21091578       2.43340787      28.99611636        0       1.00000000       0.00022413      -0.00333272       0.00386291      -0.00766061       0.00316208       0.00169581
H        1.40096255       4.05492663      31.22421204        0       1.00000000       0.00200184       0.00196087       0.00070695       0.00305848      -0.00677280       0.00542728
H        2.80537549       0.00333259      28.99487601        0       1.00000000      -0.00151133       0.00171436      -0.00333274       0.00687920      -0.00633445       0.00236137
H        2.80658769       1.62566379      26.78827405        0       1.00000000       0.00322756      -0.00052941       0.00401735      -0.00460298       0.00477924      -0.00382585
H        4.20881137       4.05446231      26.78978232        0       1.00000000       0.00179945       0.00282796       0.00381087      -0.00368713      -0.00170631      -0.00387329
H        4.20687688       4.05224111      31.21991112        0       1.00000000      -0.00103897       0.00371803       0.00126772      -0.00562291      -0.00626132       0.00319448
H        5.61597664       1.62236577      26.78835300        0       1.00000000      -0.00296320       0.00013496       0.00182203       0.00463397       0.00036602      -0.00591590
24
Lattice="5.612310241546866 0.0 0.0 0.0 4.860403243099165 0.0 0.0 0.0 44.58243212332868" Properties=species:S:1:pos:R:3:tags:I:1:masses:R:1:momenta:R:3:forces:R:3 KEmax=31.022389213981967 iter=150191 volume=1216.1236359717223 set_wall=T ns_energy=-16.77563657722713 last_walked_iter_clone=149183 energy=-16.77574902988259 stress="0.02448610400321789 -6.388173673563086e-06 9.885872008465703e-06 -6.388173673563086e-06 0.02453877847799018 2.908115083936742e-05 9.885872008465703e-06 2.908115083936742e-05 0.009118264576592473" pbc="T T F"
H        1.40307756       0.81006721      20.00000000        3       1.00000000       0.00000000       0.00000000       0.00000000       0.00000000       0.00000000       0.00000000
H        4.20923268       0.81006721      20.00000000        3       1.00000000       0.00000000       0.00000000       0.00000000       0.00000000       0.00000000       0.00000000
H        0.00000000       3.24026883      20.00000000        3       1.00000000       0.00000000       0.00000000       0.00000000       0.00000000       0.00000000       0.00000000
H        2.80615512       3.24026883      20.00000000        3       1.00000000       0.00000000       0.00000000       0.00000000       0.00000000       0.00000000       0.00000000
H        0.00000000       1.62013441      22.29121606        2       1.00000000       0.00000000       0.00000000       0.00000000       0.00000000       0.00000000       0.00000000
H        2.80615512       1.62013441      22.29121606        2       1.00000000       0.00000000       0.00000000       0.00000000       0.00000000       0.00000000       0.00000000
H        1.40307756       4.05033604      22.29121606        2       1.00000000       0.00000000       0.00000000       0.00000000       0.00000000       0.00000000       0.00000000
H        4.20923268       4.05033604      22.29121606        2       1.00000000       0.00000000       0.00000000       0.00000000       0.00000000       0.00000000       0.00000000
H        0.00000000       0.00000000      24.58243212        1       1.00000000       0.00000000       0.00000000       0.00000000       0.00000000       0.00000000       0.00000000
H        2.80615512       0.00000000      24.58243212        1       1.00000000       0.00000000       0.00000000       0.00000000       0.00000000       0.00000000       0.00000000
H        1.40307756       2.43020162      24.58243212        1       1.00000000       0.00000000       0.00000000       0.00000000       0.00000000       0.00000000       0.00000000
H        4.20923268       2.43020162      24.58243212        1       1.00000000       0.00000000       0.00000000       0.00000000       0.00000000       0.00000000       0.00000000
H        1.40187764       2.43117550      28.99546425        0       1.00000000      -0.00008198       0.00350955      -0.00166315       0.00623298       0.00306545       0.00308519
H        5.61120206       1.62226905      31.22364564        0       1.00000000      -0.00495355       0.00187956       0.00104870       0.00011019       0.01066618       0.00700048
H       -0.00325546       0.00197530      28.99601960        0       1.00000000      -0.00187051      -0.00511722       0.00028672      -0.00254855       0.00610331      -0.00549207
H        1.40305105       4.05185553      26.79032840        0       1.00000000       0.00376846       0.00103284       0.00100429       0.00454953      -0.00647531      -0.00092824
H        2.80522268       1.62208203      31.22483955        0       1.00000000      -0.00365290      -0.00333980       0.00109665      -0.00022399      -0.00194133      -0.00356490
H        4.20908013       2.42938445      28.99612260        0       1.00000000      -0.00100607       0.00546399       0.00446538      -0.00766061       0.00316208       0.00169581
H        1.39782748       4.05249435      31.22336895        0       1.00000000       0.00358488       0.00385196       0.00050479       0.00305848      -0.00677280       0.00542728
H        2.80224711       0.00170878      28.99624212        0       1.00000000       0.00203884      -0.00102235       0.00448162       0.00687920      -0.00633445       0.00236137
H        2.80558995       1.62234224      26.78854722        0       1.00000000       0.00093006       0.00065371       0.00223300      -0.00460298       0.00477924      -0.00382585
H        4.20835264       4.05107988      26.78928313        0       1.00000000       0.00211157      -0.00069062      -0.00046496      -0.00368713      -0.00170631      -0.00387329
H        4.20630998       4.05479411      31.22183315        0       1.00000000       0.00053640      -0.00395562       0.00007077      -0.00562291      -0.00626132       0.00319448
H       -0.00260371       1.62088989      26.78811088        0       1.00000000       0.00031544      -0.00088245      -0.00017016       0.00463397       0.00036602      -0.00591590
24
Lattice="5.612310241546866 0.0 0.0 0.0 4.860403243099165 0.0 0.0 0.0 44.58243212332868" Properties=species:S:1:pos:R:3:tags:I:1:masses:R:1:momenta:R:3:forces:R:3 KEmax=31.022389213981967 iter=150191 volume=1216.1236359717223 set_wall=T ns_energy=-16.77563757724694 last_walked_iter_clone=150119 energy=-16.77574902988259 stress="0.02448610400321789 -6.388173673563086e-06 9.885872008465703e-06 -6.388173673563086e-06 0.02453877847799018 2.908115083936742e-05 9.885872008465703e-06 2.908115083936742e-05 0.009118264576592473" pbc="T T F"
H        1.40307756       0.81006721      20.00000000        3       1.00000000       0.00000000       0.00000000       0.00000000       0.00000000       0.00000000       0.00000000
H        4.20923268       0.81006721      20.00000000        3       1.00000000       0.00000000       0.00000000       0.00000000       0.00000000       0.00000000       0.00000000
H        0.00000000       3.24026883      20.00000000        3       1.00000000       0.00000000       0.00000000       0.00000000       0.00000000       0.00000000       0.00000000
H        2.80615512       3.24026883      20.00000000        3       1.00000000       0.00000000       0.00000000       0.00000000       0.00000000       0.00000000       0.00000000
H        0.00000000       1.62013441      22.29121606        2       1.00000000       0.00000000       0.00000000       0.00000000       0.00000000       0.00000000       0.00000000
H        2.80615512       1.62013441      22.29121606        2       1.00000000       0.00000000       0.00000000       0.00000000       0.00000000       0.00000000       0.00000000
H        1.40307756       4.05033604      22.29121606        2       1.00000000       0.00000000       0.00000000       0.00000000       0.00000000       0.00000000       0.00000000
H        4.20923268       4.05033604      22.29121606        2       1.00000000       0.00000000       0.00000000       0.00000000       0.00000000       0.00000000       0.00000000
H        0.00000000       0.00000000      24.58243212        1       1.00000000       0.00000000       0.00000000       0.00000000       0.00000000       0.00000000       0.00000000
H        2.80615512       0.00000000      24.58243212        1       1.00000000       0.00000000       0.00000000       0.00000000       0.00000000       0.00000000       0.00000000
H        1.40307756       2.43020162      24.58243212        1       1.00000000       0.00000000       0.00000000       0.00000000       0.00000000       0.00000000       0.00000000
H        4.20923268       2.43020162      24.58243212        1       1.00000000       0.00000000       0.00000000       0.00000000       0.00000000       0.00000000       0.00000000
H        1.40103157       2.42880108      28.99432392        0       1.00000000       0.00441590       0.00155982      -0.00054238       0.00623298       0.00306545       0.00308519
H        5.61141413       1.62335430      31.22246147        0       1.00000000       0.00118995       0.00198202       0.00164141       0.00011019       0.01066618       0.00700048
H        5.60980077       4.85954550      28.99671521        0       1.00000000       0.00081154       0.00393636       0.00035324      -0.00254855       0.00610331      -0.00549207
H        1.39994714       4.04844139      26.78985902        0       1.00000000      -0.00388489       0.00034457       0.00165160       0.00454953      -0.00647531      -0.00092824
H        2.80400800       1.61954505      31.22104765        0       1.00000000      -0.00266466      -0.00194923       0.00166029      -0.00022399      -0.00194133      -0.00356490
H        4.20385662       2.42785033      28.99487685        0       1.00000000      -0.00104351       0.00107729       0.00058167      -0.00766061       0.00316208       0.00169581
H        1.40207305       4.05256276      31.21920172        0       1.00000000      -0.00244872       0.00045737       0.00269730       0.00305848      -0.00677280       0.00542728
H        2.80204826       4.85932400      28.99377845        0       1.00000000       0.00059345       0.00134822       0.00040457       0.00687920      -0.00633445       0.00236137
H        2.80243867       1.61819650      26.78952050        0       1.00000000      -0.00148552       0.00354755       0.00339844      -0.00460298       0.00477924      -0.00382585
H        4.20902131       4.04609520      26.78743419        0       1.00000000       0.00104762      -0.00331277       0.00247048      -0.00368713      -0.00170631      -0.00387329
H        4.20623585       4.05171792      31.22263377        0       1.00000000       0.00098023      -0.00162119       0.00182116      -0.00562291      -0.00626132       0.00319448
H        5.61032115       1.61751927      26.78965034        0       1.00000000       0.00081994      -0.00135784       0.00350212       0.00463397       0.00036602      -0.00591590
24
Lattice="5.612310241546866 0.0 0.0 0.0 4.860403243099165 0.0 0.0 0.0 44.58243212332868" Properties=species:S:1:pos:R:3:tags:I:1:masses:R:1:momenta:R:3:forces:R:3 KEmax=31.022389213981967 iter=150191 volume=1216.1236359717223 set_wall=T ns_energy=-16.77564017758895 last_walked_iter_clone=150168 energy=-16.77574902988259 stress="0.02448610400321789 -6.388173673563086e-06 9.885872008465703e-06 -6.388173673563086e-06 0.02453877847799018 2.908115083936742e-05 9.885872008465703e-06 2.908115083936742e-05 0.009118264576592473" pbc="T T F"
H        1.40307756       0.81006721      20.00000000        3       1.00000000       0.00000000       0.00000000       0.00000000       0.00000000       0.00000000       0.00000000
H        4.20923268       0.81006721      20.00000000        3       1.00000000       0.00000000       0.00000000       0.00000000       0.00000000       0.00000000       0.00000000
H        0.00000000       3.24026883      20.00000000        3       1.00000000       0.00000000       0.00000000       0.00000000       0.00000000       0.00000000       0.00000000
H        2.80615512       3.24026883      20.00000000        3       1.00000000       0.00000000       0.00000000       0.00000000       0.00000000       0.00000000       0.00000000
H        0.00000000       1.62013441      22.29121606        2       1.00000000       0.00000000       0.00000000       0.00000000       0.00000000       0.00000000       0.00000000
H        2.80615512       1.62013441      22.29121606        2       1.00000000       0.00000000       0.00000000       0.00000000       0.00000000       0.00000000       0.00000000
H        1.40307756       4.05033604      22.29121606        2       1.00000000       0.00000000       0.00000000       0.00000000       0.00000000       0.00000000       0.00000000
H        4.20923268       4.05033604      22.29121606        2       1.00000000       0.00000000       0.00000000       0.00000000       0.00000000       0.00000000       0.00000000
H        0.00000000       0.00000000      24.58243212        1       1.00000000       0.00000000       0.00000000       0.00000000       0.00000000       0.00000000       0.00000000
H        2.80615512       0.00000000      24.58243212        1       1.00000000       0.00000000       0.00000000       0.00000000       0.00000000       0.00000000       0.00000000
H        1.40307756       2.43020162      24.58243212        1       1.00000000       0.00000000       0.00000000       0.00000000       0.00000000       0.00000000       0.00000000
H        4.20923268       2.43020162      24.58243212        1       1.00000000       0.00000000       0.00000000       0.00000000       0.00000000       0.00000000       0.00000000
H        1.40161821       2.43261518      28.99463018        0       1.00000000       0.00286946       0.00007005      -0.00344578       0.00623298       0.00306545       0.00308519
H       -0.00363267       1.62231704      31.22249841        0       1.00000000       0.00066498      -0.00256118      -0.00328186       0.00011019       0.01066618       0.00700048
H        5.61199506      -0.00032991      28.99334358        0       1.00000000       0.00284809       0.00009983      -0.00183510      -0.00254855       0.00610331      -0.00549207
H        1.40365140       4.05168604      26.78737173        0       1.00000000       0.00401027       0.00067592      -0.00072125       0.00454953      -0.00647531      -0.00092824
H        2.80434911       1.62214587      31.21790176        0       1.00000000      -0.00145425      -0.00267405      -0.00001475      -0.00022399      -0.00194133      -0.00356490
H        4.20856377       2.42865879      28.99303982        0       1.00000000       0.00041460      -0.00019493      -0.00336015      -0.00766061       0.00316208       0.00169581
H        1.40104534       4.05263749      31.22246692        0       1.00000000      -0.00558419       0.00158837      -0.00216300       0.00305848      -0.00677280       0.00542728
H        2.80582234      -0.00170669      28.99601876        0       1.00000000      -0.00287115       0.00317668      -0.00032883       0.00687920      -0.00633445       0.00236137
H        2.80553704       1.62059229      26.79053213        0       1.00000000      -0.00211878       0.00356634      -0.00143320      -0.00460298       0.00477924      -0.00382585
H        4.20781392       4.05123868      26.78940823        0       1.00000000       0.00481061       0.00259955       0.00277243      -0.00368713      -0.00170631      -0.00387329
H        4.20699417       4.05148371      31.21912421        0       1.00000000      -0.00096961       0.00124646       0.00134950      -0.00562291      -0.00626132       0.00319448
H        5.61154946       1.61858534      26.78791583        0       1.00000000       0.00408296       0.00012108      -0.00267279       0.00463397       0.00036602      -0.00591590
24
Lattice="5.612310241546866 0.0 0.0 0.0 4.860403243099165 0.0 0.0 0.0 44.58243212332868" Properties=species:S:1:pos:R:3:tags:I:1:masses:R:1:momenta:R:3:forces:R:3 KEmax=31.022389213981967 iter=150191 volume=1216.1236359717223 set_wall=T ns_energy=-16.77563930117124 last_walked_iter_clone=150061 energy=-16.77574902988259 stress="0.02448610400321789 -6.388173673563086e-06 9.885872008465703e-06 -6.388173673563086e-06 0.02453877847799018 2.908115083936742e-05 9.885872008465703e-06 2.908115083936742e-05 0.009118264576592473" pbc="T T F"
H        1.40307756       0.81006721      20.00000000        3       1.00000000       0.00000000       0.00000000       0.00000000       0.00000000       0.00000000       0.00000000
H        4.20923268       0.81006721      20.00000000        3       1.00000000       0.00000000       0.00000000       0.00000000       0.00000000       0.00000000       0.00000000
H        0.00000000       3.24026883      20.00000000        3       1.00000000       0.00000000       0.00000000       0.00000000       0.00000000       0.00000000       0.00000000
H        2.80615512       3.24026883      20.00000000        3       1.00000000       0.00000000       0.00000000       0.00000000       0.00000000       0.00000000       0.00000000
H        0.00000000       1.62013441      22.29121606        2       1.00000000       0.00000000       0.00000000       0.00000000       0.00000000       0.00000000       0.00000000
H        2.80615512       1.62013441      22.29121606        2       1.00000000       0.00000000       0.00000000       0.00000000       0.00000000       0.00000000       0.00000000
H        1.40307756       4.05033604      22.29121606        2       1.00000000       0.00000000       0.00000000       0.00000000       0.00000000       0.00000000       0.00000000
H        4.20923268       4.05033604      22.29121606        2       1.00000000       0.00000000       0.00000000       0.00000000       0.00000000       0.00000000       0.00000000
H        0.00000000       0.00000000      24.58243212        1       1.00000000       0.00000000       0.00000000       0.00000000       0.00000000       0.00000000       0.00000000
H        2.80615512       0.00000000      24.58243212        1       1.00000000       0.00000000       0.00000000       0.00000000       0.00000000       0.00000000       0.00000000
H        1.40307756       2.43020162      24.58243212        1       1.00000000       0.00000000       0.00000000       0.00000000       0.00000000       0.00000000       0.00000000
H        4.20923268       2.43020162      24.58243212        1       1.00000000       0.00000000       0.00000000       0.00000000       0.00000000       0.00000000       0.00000000
H        1.40454137       2.43053760      28.99629058        0       1.00000000      -0.00313508      -0.00028417       0.00124613       0.00623298       0.00306545       0.00308519
H        0.00270272       1.61893054      31.22287595        0       1.00000000       0.00169560       0.00002806      -0.00082132       0.00011019       0.01066618       0.00700048
H        0.00427841       0.00033881      28.99483851        0       1.00000000      -0.00171357       0.00049534       0.00429156      -0.00254855       0.00610331      -0.00549207
H        1.40588687       4.05027750      26.78961011        0       1.00000000      -0.00211019      -0.00106264      -0.00122147       0.00454953      -0.00647531      -0.00092824
H        2.80764922       1.62029569      31.22457911        0       1.00000000      -0.00209778      -0.00015775      -0.00153350      -0.00022399      -0.00194133      -0.00356490
H        4.21359012       2.43382511      28.99760288        0       1.00000000       0.00266693      -0.00587241       0.00277631      -0.00766061       0.00316208       0.00169581
H        1.40417038       4.05019934      31.22234414        0       1.00000000       0.00175443       0.00084735      -0.00310802       0.00305848      -0.00677280       0.00542728
H        2.80826680       0.00154788      28.99600464        0       1.00000000      -0.00455374       0.00218001      -0.00198335       0.00687920      -0.00633445       0.00236137
H        2.80812350       1.62131080      26.78997244        0       1.00000000      -0.00219115      -0.00310201       0.00289849      -0.00460298       0.00477924      -0.00382585
H        4.21124394       4.05182174      26.79152213        0       1.00000000      -0.00503806      -0.00509766       0.00075012      -0.00368713      -0.00170631      -0.00387329
H        4.21132272       4.04924617      31.22374178        0       1.00000000      -0.00240363      -0.00084130      -0.00003719      -0.00562291      -0.00626132       0.00319448
H        0.00176482       1.62219999      26.78863475        0       1.00000000       0.00031376       0.00370276       0.00063132       0.00463397       0.00036602      -0.00591590
24
Lattice="5.612310241546866 0.0 0.0 0.0 4.860403243099165 0.0 0.0 0.0 44.58243212332868" Properties=species:S:1:pos:R:3:tags:I:1:masses:R:1:momenta:R:3:forces:R:3 KEmax=31.022389213981967 iter=150191 volume=1216.1236359717223 set_wall=T ns_energy=-16.7756388943312 last_walked_iter_clone=150161 energy=-16.77574902988259 stress="0.02448610400321789 -6.388173673563086e-06 9.885872008465703e-06 -6.388173673563086e-06 0.02453877847799018 2.908115083936742e-05 9.885872008465703e-06 2.908115083936742e-05 0.009118264576592473" pbc="T T F"