24
Lattice="5.612310241546866 0.0 0.0 0.0 4.860403243099165 0.0 0.0 0.0 44.58243212332868" Properties=species:S:1:pos:R:3:tags:I:1:masses:R:1:momenta:R:3:forces:R:3 KEmax=31.022389213981967 iter=133946 volume=1216.1236359717223 set_wall=T ns_energy=-16.774981153490845 last_walked_iter_clone=133906 energy=-16.775455926758745 stress="0.024510775222809665 6.949085586441406e-05 0.0001665869903916911 6.949085586441406e-05 0.0245474465864223 9.385656315765746e-05 0.0001665869903916911 9.385656315765746e-05 0.009189348007140507" pbc="T T F"
H        1.40307756       0.81006721      20.00000000        3       1.00000000       0.00000000       0.00000000       0.00000000       0.00000000       0.00000000       0.00000000
H        4.20923268       0.81006721      20.00000000        3       1.00000000       0.00000000       0.00000000       0.00000000       0.00000000       0.00000000       0.00000000
H        0.00000000       3.24026883      20.00000000        3       1.00000000       0.00000000       0.00000000       0.00000000       0.00000000       0.00000000       0.00000000
H        2.80615512       3.24026883      20.00000000        3       1.00000000       0.00000000       0.00000000       0.00000000       0.00000000       0.00000000       0.00000000
H        0.00000000       1.62013441      22.29121606        2       1.00000000       0.00000000       0.00000000       0.00000000       0.00000000       0.00000000       0.00000000
H        2.80615512       1.62013441      22.29121606        2       1.00000000       0.00000000       0.00000000       0.00000000       0.00000000       0.00000000       0.00000000
H        1.40307756       4.05033604      22.29121606        2       1.00000000       0.00000000       0.00000000       0.00000000       0.00000000       0.00000000       0.00000000
H        4.20923268       4.05033604      22.29121606        2       1.00000000       0.00000000       0.00000000       0.00000000       0.00000000       0.00000000       0.00000000
H        0.00000000       0.00000000      24.58243212        1       1.00000000       0.00000000       0.00000000       0.00000000       0.00000000       0.00000000       0.00000000
H        2.80615512       0.00000000      24.58243212        1       1.00000000       0.00000000       0.00000000       0.00000000       0.00000000       0.00000000       0.00000000
H        1.40307756       2.43020162      24.58243212        1       1.00000000       0.00000000       0.00000000       0.00000000       0.00000000       0.00000000       0.00000000
H        4.20923268       2.43020162      24.58243212        1       1.00000000       0.00000000       0.00000000       0.00000000       0.00000000       0.00000000       0.00000000
H        1.40344998       2.43643364      28.99252674        0       1.00000000      -0.00255509       0.00587336      -0.00304843      -0.01617908      -0.00765354       0.00470836
H        0.01172259       1.62503442      31.22474584        0       1.00000000       0.00920551      -0.00073559      -0.00293526      -0.00178443       0.00687737       0.00676605
H        0.00321044       0.00286464      28.99481431        0       1.00000000      -0.00076603       0.00405847      -0.00068445      -0.00701028       0.00412462       0.00737097
H        1.40876793       4.05720501      26.78836211        0       1.00000000      -0.00063121       0.00539415       0.00664037       0.00214588      -0.00108589       0.00178129
H        2.81647648       1.62904497      31.22946844        0       1.00000000      -0.00434096      -0.00713784      -0.00405266      -0.01124743       0.00816111      -0.00955375
H        4.21041014       2.43508391      28.99718774        0       1.00000000      -0.00781843      -0.00210378      -0.00230877       0.01204187       0.00261621       0.00715006
H        1.41128525       4.05917653      31.21902202        0       1.00000000       0.00254619       0.00324841      -0.00208049       0.00845084      -0.00764487      -0.00690573
H        2.80890066       0.00431841      28.99875028        0       1.00000000      -0.00131384       0.00419790       0.00226469      -0.01243246      -0.00029123       0.01328381
H        2.81066081       1.62707286      26.78606559        0       1.00000000       0.00553210      -0.00641435       0.00163105      -0.00022694      -0.00789674      -0.00543564
H        4.21185946       4.05007766      26.78862443        0       1.00000000       0.00048517      -0.00148725      -0.00203718      -0.00147016       0.00349778       0.00710509
H        4.21794349       4.05721403      31.22599294        0       1.00000000       0.00500505      -0.00547521      -0.00159251       0.00743934      -0.01003142      -0.00352681
H        5.61878441       1.62539816      26.79112669        0       1.00000000       0.00415981      -0.00476541       0.00890664       0.01498288       0.00281843      -0.01302286
24
Lattice="5.612310241546866 0.0 0.0 0.0 4.860403243099165 0.0 0.0 0.0 44.58243212332868" Properties=species:S:1:pos:R:3:tags:I:1:masses:R:1:momenta:R:3:forces:R:3 KEmax=31.022389213981967 iter=133946 volume=1216.1236359717223 set_wall=T ns_energy=-16.7749828571176 last_walked_iter_clone=133862 energy=-16.775455926758745 stress="0.024510775222809665 6.949085586441406e-05 0.0001665869903916911 6.949085586441406e-05 0.0245474465864223 9.385656315765746e-05 0.0001665869903916911 9.385656315765746e-05 0.009189348007140507" pbc="T T F"
H        1.40307756       0.81006721      20.00000000        3       1.00000000       0.00000000       0.00000000       0.00000000       0.00000000       0.00000000       0.00000000
H        4.20923268       0.81006721      20.00000000        3       1.00000000       0.00000000       0.00000000       0.00000000       0.00000000       0.00000000       0.00000000
H        0.00000000       3.24026883      20.00000000        3       1.00000000       0.00000000       0.00000000       0.00000000       0.00000000       0.00000000       0.00000000
H        2.80615512       3.24026883      20.00000000        3       1.00000000       0.00000000       0.00000000       0.00000000       0.00000000       0.00000000       0.00000000
H        0.00000000       1.62013441      22.29121606        2       1.00000000       0.00000000       0.00000000       0.00000000       0.00000000       0.00000000       0.00000000
H        2.80615512       1.62013441      22.29121606        2       1.00000000       0.00000000       0.00000000       0.00000000       0.00000000       0.00000000       0.00000000
H        1.40307756       4.05033604      22.29121606        2       1.00000000       0.00000000       0.00000000       0.00000000       0.00000000       0.00000000       0.00000000
H        4.20923268       4.05033604      22.29121606        2       1.00000000       0.00000000       0.00000000       0.00000000       0.00000000       0.00000000       0.00000000
H        0.00000000       0.00000000      24.58243212        1       1.00000000       0.00000000       0.00000000       0.00000000       0.00000000       0.00000000       0.00000000
H        2.80615512       0.00000000      24.58243212        1       1.00000000       0.00000000       0.00000000       0.00000000       0.00000000       0.00000000       0.00000000
H        1.40307756       2.43020162      24.58243212        1       1.00000000       0.00000000       0.00000000       0.00000000       0.00000000       0.00000000       0.00000000
H        4.20923268       2.43020162      24.58243212        1       1.00000000       0.00000000       0.00000000       0.00000000       0.00000000       0.00000000       0.00000000
H        1.39763912       2.43132452      28.99596480        0       1.00000000      -0.00505723      -0.00383018      -0.00096587      -0.01617908      -0.00765354       0.00470836
H        5.60816674       1.61032495      31.22150536        0       1.00000000      -0.00533337       0.00506116      -0.00070570      -0.00178443       0.00687737       0.00676605
H        5.60445032       4.86048000      28.99245666        0       1.00000000       0.00362918       0.00468761      -0.00172811      -0.00701028       0.00412462       0.00737097
H        1.39571119       4.05370210      26.78913062        0       1.00000000      -0.00154672       0.00404541       0.01056624       0.00214588      -0.00108589       0.00178129
H        2.79626802       1.61736831      31.22635959        0       1.00000000      -0.00514242      -0.00542466       0.00015024      -0.01124743       0.00816111      -0.00955375
H        4.20486160       2.43305823      28.99227054        0       1.00000000       0.01019285      -0.00109103      -0.00117495       0.01204187       0.00261621       0.00715006
H        1.39260841       4.04524926      31.22107560        0       1.00000000       0.00681714       0.00769700      -0.00987565       0.00845084      -0.00764487      -0.00690573
H        2.79871360       4.86141723      28.99799702        0       1.00000000      -0.00049443       0.00216959       0.00316950      -0.01243246      -0.00029123       0.01328381
H        2.79794035       1.62121725      26.78741482        0       1.00000000      -0.00036465       0.00557631      -0.00160572      -0.00022694      -0.00789674      -0.00543564
H        4.20465448       4.04883441      26.79041836        0       1.00000000       0.00368897      -0.00495682       0.00123754      -0.00147016       0.00349778       0.00710509
H        4.20521166       4.04706675      31.21888553        0       1.00000000       0.00395583      -0.00068587      -0.00243948       0.00743934      -0.01003142      -0.00352681
H        5.60576296       1.61958063      26.78484292        0       1.00000000       0.00143828      -0.00023536      -0.00152288       0.01498288       0.00281843      -0.01302286
24
Lattice="5.612310241546866 0.0 0.0 0.0 4.860403243099165 0.0 0.0 0.0 44.58243212332868" Properties=species:S:1:pos:R:3:tags:I:1:masses:R:1:momenta:R:3:forces:R:3 KEmax=31.022389213981967 iter=133946 volume=1216.1236359717223 set_wall=T ns_energy=-16.775000390202795 last_walked_iter_clone=133744 energy=-16.775455926758745 stress="0.024510775222809665 6.949085586441406e-05 0.0001665869903916911 6.949085586441406e-05 0.0245474465864223 9.385656315765746e-05 0.0001665869903916911 9.385656315765746e-05 0.009189348007140507" pbc="T T F"
H        1.40307756       0.81006721      20.00000000        3       1.00000000       0.00000000       0.00000000       0.00000000       0.00000000       0.00000000       0.00000000
H        4.20923268       0.81006721      20.00000000        3       1.00000000       0.00000000       0.00000000       0.00000000       0.00000000       0.00000000       0.00000000
H        0.00000000       3.24026883      20.00000000        3       1.00000000       0.00000000       0.00000000       0.00000000       0.00000000       0.00000000       0.00000000
H        2.80615512       3.24026883      20.00000000        3       1.00000000       0.00000000       0.00000000       0.00000000       0.00000000       0.00000000       0.00000000
H        0.00000000       1.62013441      22.29121606        2       1.00000000       0.00000000       0.00000000       0.00000000       0.00000000       0.00000000       0.00000000
H        2.80615512       1.62013441      22.29121606        2       1.00000000       0.00000000       0.00000000       0.00000000       0.00000000       0.00000000       0.00000000
H        1.40307756       4.05033604      22.29121606        2       1.00000000       0.00000000       0.00000000       0.00000000       0.00000000       0.00000000       0.00000000
H        4.20923268       4.05033604      22.29121606        2       1.00000000       0.00000000       0.00000000       0.00000000       0.00000000       0.00000000       0.00000000
H        0.00000000       0.00000000      24.58243212        1       1.00000000       0.00000000       0.00000000       0.00000000       0.00000000       0.00000000       0.00000000
H        2.80615512       0.00000000      24.58243212        1       1.00000000       0.00000000       0.00000000       0.00000000       0.00000000       0.00000000       0.00000000
H        1.40307756       2.43020162      24.58243212        1       1.00000000       0.00000000       0.00000000       0.00000000       0.00000000       0.00000000       0.00000000
H        4.20923268       2.43020162      24.58243212        1       1.00000000       0.00000000       0.00000000       0.00000000       0.00000000       0.00000000       0.00000000
H        1.41416543       2.43165728      28.99359338        0       1.00000000      -0.00034914       0.00231841      -0.00006277      -0.01617908      -0.00765354       0.00470836
H        0.01000789       1.62253655      31.21613389        0       1.00000000      -0.00756202      -0.00547020       0.00207350      -0.00178443       0.00687737       0.00676605
H        0.00356913       0.00119673      28.98672765        0       1.00000000      -0.00233012      -0.00076071       0.00057225      -0.00701028       0.00412462       0.00737097
H        1.40627114       4.04371393      26.78555400        0       1.00000000       0.00565643      -0.00346098      -0.00306058       0.00214588      -0.00108589       0.00178129
H        2.81570581       1.61997428      31.21922406        0       1.00000000       0.00221910      -0.00119088      -0.00454391      -0.01124743       0.00816111      -0.00955375
H        4.21110494       2.43423270      28.99220131        0       1.00000000      -0.00138708      -0.00746977       0.00360491       0.01204187       0.00261621       0.00715006
H        1.41123905       4.05333051      31.21764159        0       1.00000000      -0.00037989       0.00185117      -0.00322825       0.00845084      -0.00764487      -0.00690573
H        2.81118522       0.00517134      28.99313039        0       1.00000000       0.00072637      -0.00443345       0.00188489      -0.01243246      -0.00029123       0.01328381
H        2.81045148       1.61592643      26.78831985        0       1.00000000      -0.00022047       0.00293407      -0.00333483      -0.00022694      -0.00789674      -0.00543564
H        4.20866568       4.04973482      26.78318575        0       1.00000000       0.01085042      -0.00201072      -0.00426276      -0.00147016       0.00349778       0.00710509
H        4.21629647       4.05791613      31.21950565        0       1.00000000      -0.00168674       0.00608360      -0.00598723       0.00743934      -0.01003142      -0.00352681
H        5.61386368       1.61512532      26.78720972        0       1.00000000      -0.00167413      -0.00776378      -0.00048196       0.01498288       0.00281843      -0.01302286
24
Lattice="5.612310241546866 0.0 0.0 0.0 4.860403243099165 0.0 0.0 0.0 44.58243212332868" Properties=species:S:1:pos:R:3:tags:I:1:masses:R:1:momenta:R:3:forces:R:3 KEmax=31.022389213981967 iter=133946 volume=1216.1236359717223 set_wall=T ns_energy=-16.77498806491543 last_walked_iter_clone=133921 energy=-16.775455926758745 stress="0.024510775222809665 6.949085586441406e-05 0.0001665869903916911 6.949085586441406e-05 0.0245474465864223 9.385656315765746e-05 0.0001665869903916911 9.385656315765746e-05 0.009189348007140507" pbc="T T F"
H        1.40307756       0.81006721      20.00000000        3       1.00000000       0.00000000       0.00000000       0.00000000       0.00000000       0.00000000       0.00000000
H        4.20923268       0.81006721      20.00000000        3       1.00000000       0.00000000       0.00000000       0.00000000       0.00000000       0.00000000       0.00000000
H        0.00000000       3.24026883      20.00000000        3       1.00000000       0.00000000       0.00000000       0.00000000       0.00000000       0.00000000       0.00000000
H        2.80615512       3.24026883      20.00000000        3       1.00000000       0.00000000       0.00000000       0.00000000       0.00000000       0.00000000       0.00000000
H        0.00000000       1.62013441      22.29121606        2       1.00000000       0.00000000       0.00000000       0.00000000       0.00000000       0.00000000       0.00000000
H        2.80615512       1.62013441      22.29121606        2       1.00000000       0.00000000       0.00000000       0.00000000       0.00000000       0.00000000       0.00000000
H        1.40307756       4.05033604      22.29121606        2       1.00000000       0.00000000       0.00000000       0.00000000       0.00000000       0.00000000       0.00000000
H        4.20923268       4.05033604      22.29121606        2       1.00000000       0.00000000       0.00000000       0.00000000       0.00000000       0.00000000       0.00000000
H        0.00000000       0.00000000      24.58243212        1       1.00000000       0.00000000       0.00000000       0.00000000       0.00000000       0.00000000       0.00000000
H        2.80615512       0.00000000      24.58243212        1       1.00000000       0.00000000       0.00000000       0.00000000       0.00000000       0.00000000       0.00000000
H        1.40307756       2.43020162      24.58243212        1       1.00000000       0.00000000       0.00000000       0.00000000       0.00000000       0.00000000       0.00000000
H        4.20923268       2.43020162      24.58243212        1       1.00000000       0.00000000       0.00000000       0.00000000       0.00000000       0.00000000       0.00000000
H        1.39848987       2.42593966      28.99635384        0       1.00000000       0.00662246       0.00707533      -0.00038289      -0.01617908      -0.00765354       0.00470836
H        5.60601850       1.61855753      31.22285696        0       1.00000000      -0.00222915      -0.00263537       0.00748486      -0.00178443       0.00687737       0.00676605
H        5.60802484      -0.00100219      28.99630901        0       1.00000000      -0.00162461       0.00052008      -0.00437055      -0.00701028       0.00412462       0.00737097
H        1.39818039       4.04682988      26.78905827        0       1.00000000      -0.00111718      -0.00883605       0.00320743       0.00214588      -0.00108589       0.00178129
H        2.80116753       1.61823545      31.22230781        0       1.00000000       0.00310474      -0.00564885       0.00409952      -0.01124743       0.00816111      -0.00955375
H        4.20280445       2.42434129      28.99568899        0       1.00000000      -0.00156199      -0.00868428      -0.00590415       0.01204187       0.00261621       0.00715006
H        1.40418955       4.04869563      31.22188982        0       1.00000000       0.00530065       0.00659098       0.00053130       0.00845084      -0.00764487      -0.00690573
H        2.80315899      -0.00431619      28.99578557        0       1.00000000      -0.00081744      -0.01253589      -0.00087551      -0.01243246      -0.00029123       0.01328381
H        2.79912671       1.61833447      26.79034014        0       1.00000000       0.00083831       0.00462868      -0.01059153      -0.00022694      -0.00789674      -0.00543564
H        4.20284480       4.05040288      26.79083698        0       1.00000000      -0.00385006       0.00190354      -0.01332111      -0.00147016       0.00349778       0.00710509
H        4.21249816       4.04470532      31.22447693        0       1.00000000      -0.00618970      -0.00255292       0.00092530       0.00743934      -0.01003142      -0.00352681
H        5.60612453       1.62304008      26.78483348        0       1.00000000       0.00066002      -0.00171745       0.00191061       0.01498288       0.00281843      -0.01302286
24
Lattice="5.612310241546866 0.0 0.0 0.0 4.860403243099165 0.0 0.0 0.0 44.58243212332868" Properties=species:S:1:pos:R:3:tags:I:1:masses:R:1:momenta:R:3:forces:R:3 KEmax=31.022389213981967 iter=133946 volume=1216.1236359717223 set_wall=T ns_energy=-16.774986576978797 last_walked_iter_clone=133670 energy=-16.775455926758745 stress="0.024510775222809665 6.949085586441406e-05 0.0001665869903916911 6.949085586441406e-05 0.0245474465864223 9.385656315765746e-05 0.0001665869903916911 9.385656315765746e-05 0.009189348007140507" pbc="T T F"
H        1.40307756       0.81006721      20.00000000        3       1.00000000       0.00000000       0.00000000       0.00000000       0.00000000       0.00000000       0.00000000
H        4.20923268       0.81006721      20.00000000        3       1.00000000       0.00000000       0.00000000       0.00000000       0.00000000       0.00000000       0.00000000
H        0.00000000       3.24026883      20.00000000        3       1.00000000       0.00000000       0.00000000       0.00000000       0.00000000       0.00000000       0.00000000
H        2.80615512       3.24026883      20.00000000        3       1.00000000       0.00000000       0.00000000       0.00000000       0.00000000       0.00000000       0.00000000
H        0.00000000       1.62013441      22.29121606        2       1.00000000       0.00000000       0.00000000       0.00000000       0.00000000       0.00000000       0.00000000
H        2.80615512       1.62013441      22.29121606        2       1.00000000       0.00000000       0.00000000       0.00000000       0.00000000       0.00000000       0.00000000
H        1.40307756       4.05033604      22.29121606        2       1.00000000       0.00000000       0.00000000       0.00000000       0.00000000       0.00000000       0.00000000
H        4.20923268       4.05033604      22.29121606        2       1.00000000       0.00000000       0.00000000       0.00000000       0.00000000       0.00000000       0.00000000
H        0.00000000       0.00000000      24.58243212        1       1.00000000       0.00000000       0.00000000       0.00000000       0.00000000       0.00000000       0.00000000
H        2.80615512       0.00000000      24.58243212        1       1.00000000       0.00000000       0.00000000       0.00000000       0.00000000       0.00000000       0.00000000
H        1.40307756       2.43020162      24.58243212        1       1.00000000       0.00000000       0.00000000       0.00000000       0.00000000       0.00000000       0.00000000
H        4.20923268       2.43020162      24.58243212        1       1.00000000       0.00000000       0.00000000       0.00000000       0.00000000       0.00000000       0.00000000
H        1.40253436       2.43488753      28.99988138        0       1.00000000       0.01280478       0.00159436      -0.00341942      -0.01617908      -0.00765354       0.00470836
H        0.00109439       1.62235351      31.22472681        0       1.00000000       0.00587352       0.00027935      -0.00472701      -0.00178443       0.00687737       0.00676605
H       -0.00128530       0.00127915      29.00039813        0       1.00000000       0.00452558       0.00439679      -0.00733873      -0.00701028       0.00412462       0.00737097
H        1.39910685       4.05263968      26.79218615        0       1.00000000      -0.01039484       0.00504890       0.00380970       0.00214588      -0.00108589       0.00178129
H        2.80746035       1.62260738      31.22470052        0       1.00000000      -0.00013843      -0.00016919      -0.00328255      -0.01124743       0.00816111      -0.00955375
H        4.20896203       2.43461675      28.99976934        0       1.00000000       0.00423000      -0.00249279       0.00536282       0.01204187       0.00261621       0.00715006
H        1.40576880       4.05498797      31.22472431        0       1.00000000       0.00453102      -0.00331446       0.01249943       0.00845084      -0.00764487      -0.00690573
H        2.80544775       0.00627612      28.99800628        0       1.00000000       0.00340701       0.00321760       0.00359808      -0.01243246      -0.00029123       0.01328381
H        2.80821624       1.62092805      26.78538593        0       1.00000000      -0.00088975       0.00284979       0.00173543      -0.00022694      -0.00789674      -0.00543564
H        4.20878147       4.05183730      26.79105537        0       1.00000000       0.00651169      -0.00097035       0.01118166      -0.00147016       0.00349778       0.00710509
H        4.21238359       4.05335010      31.22541115        0       1.00000000       0.00398501       0.00680680      -0.00225577       0.00743934      -0.01003142      -0.00352681
H        5.61525198       1.62078800      26.79460797        0       1.00000000       0.00236622       0.00593405      -0.01074491       0.01498288       0.00281843      -0.01302286
24
Lattice="5.612310241546866 0.0 0.0 0.0 4.860403243099165 0.0 0.0 0.0 44.58243212332868" Properties=species:S:1:pos:R:3:tags:I:1:masses:R:1:momenta:R:3:forces:R:3 KEmax=31.022389213981967 iter=133946 volume=1216.1236359717223 set_wall=T ns_energy=-16.77499814264501 last_walked_iter_clone=133532 energy=-16.775455926758745 stress="0.024510775222809665 6.949085586441406e-05 0.0001665869903916911 6.949085586441406e-05 0.0245474465864223 9.385656315765746e-05 0.0001665869903916911 9.385656315765746e-05 0.009189348007140507" pbc="T T F"
H        1.40307756       0.81006721      20.00000000        3       1.00000000       0.00000000       0.00000000       0.00000000       0.00000000       0.00000000       0.00000000
H        4.20923268       0.81006721      20.00000000        3       1.00000000       0.00000000       0.00000000       0.00000000       0.00000000       0.00000000       0.00000000
H        0.00000000       3.24026883      20.00000000        3       1.00000000       0.00000000       0.00000000       0.00000000       0.00000000       0.00000000       0.00000000
H        2.80615512       3.24026883      20.00000000        3       1.00000000       0.00000000       0.00000000       0.00000000       0.00000000       0.00000000       0.00000000
H        0.00000000       1.62013441      22.29121606        2       1.00000000       0.00000000       0.00000000       0.00000000       0.00000000       0.00000000       0.00000000
H        2.80615512       1.62013441      22.29121606        2       1.00000000       0.00000000       0.00000000       0.00000000       0.00000000       0.00000000       0.00000000
H        1.40307756       4.05033604      22.29121606        2       1.00000000       0.00000000       0.00000000       0.00000000       0.00000000       0.00000000       0.00000000
H        4.20923268       4.05033604      22.29121606        2       1.00000000       0.00000000       0.00000000       0.00000000       0.00000000       0.00000000       0.00000000
H        0.00000000       0.00000000      24.58243212        1       1.00000000       0.00000000       0.00000000       0.00000000       0.00000000       0.00000000       0.00000000
H        2.80615512       0.00000000      24.58243212        1       1.00000000       0.00000000       0.00000000       0.00000000       0.00000000       0.00000000       0.00000000
H        1.40307756       2.43020162      24.58243212        1       1.00000000       0.00000000       0.00000000       0.00000000       0.00000000       0.00000000       0.00000000
H        4.20923268       2.43020162      24.58243212        1       1.00000000       0.00000000       0.00000000       0.00000000       0.00000000       0.00000000       0.00000000
H        1.40088382       2.42858475      28.99487913        0       1.00000000       0.00198643       0.00130275       0.00281854      -0.01617908      -0.00765354       0.00470836
H       -0.00039040       1.61880245      31.22187203        0       1.00000000       0.00072847       0.00150656      -0.00789209      -0.00178443       0.00687737       0.00676605
H        0.00058668       4.86326109      28.99470898        0       1.00000000      -0.00048719       0.00388045       0.00504888      -0.00701028       0.00412462       0.00737097
H        1.40360375       4.04842285      26.79019458        0       1.00000000       0.00173253       0.00543302      -0.00167863       0.00214588      -0.00108589       0.00178129
H        2.80933858       1.62027815      31.21515957        0       1.00000000      -0.00260005       0.00432794      -0.00582027      -0.01124743       0.00816111      -0.00955375
H        4.21054183       2.42955799      28.99454488        0       1.00000000      -0.00533091      -0.00051234      -0.00545880       0.01204187       0.00261621       0.00715006
H        1.40417748       4.04798411      31.21733663        0       1.00000000      -0.00166977       0.00741895      -0.00345823       0.00845084      -0.00764487      -0.00690573
H        2.80800089       4.85827495      28.99517678        0       1.00000000       0.00099665       0.00824176       0.00648022      -0.01243246      -0.00029123       0.01328381
H        2.81453664       1.61686583      26.78510196        0       1.00000000      -0.00136396      -0.00196842       0.00042258      -0.00022694      -0.00789674      -0.00543564
H        4.21038073       4.05012507      26.79398157        0       1.00000000      -0.00579711      -0.01021709      -0.00759058      -0.00147016       0.00349778       0.00710509
H        4.21262691       4.04933796      31.21904885        0       1.00000000       0.00788201      -0.00101927      -0.01119825       0.00743934      -0.01003142      -0.00352681
H        5.61492728       1.61740872      26.78866401        0       1.00000000      -0.00643112      -0.00498934       0.00487789       0.01498288       0.00281843      -0.01302286
24
Lattice="5.612310241546866 0.0 0.0 0.0 4.860403243099165 0.0 0.0 0.0 44.58243212332868" Properties=species:S:1:pos:R:3:tags:I:1:masses:R:1:momenta:R:3:forces:R:3 KEmax=31.022389213981967 iter=133946 volume=1216.1236359717223 set_wall=T ns_energy=-16.77499747998315 last_walked_iter_clone=133924 energy=-16.775455926758745 stress="0.024510775222809665 6.949085586441406e-05 0.0001665869903916911 6.949085586441406e-05 0.0245474465864223 9.385656315765746e-05 0.0001665869903916911 9.385656315765746e-05 0.009189348007140507" pbc="T T F"