24
Lattice="5.612310241546866 0.0 0.0 0.0 4.860403243099165 0.0 0.0 0.0 44.58243212332868" Properties=species:S:1:pos:R:3:tags:I:1:masses:R:1:momenta:R:3:forces:R:3 KEmax=31.022389213981967 iter=86960 volume=1216.1236359717223 set_wall=T ns_energy=-16.728116893219116 last_walked_iter_clone=86741 energy=-16.75013847230305 stress="0.02381203791233343 -0.0006048931805256107 0.00079582269964084 -0.0006048931805256107 0.024311919609758547 0.000473578150866292 0.00079582269964084 0.000473578150866292 0.008966382508697641" pbc="T T F"
H        1.40307756       0.81006721      20.00000000        3       1.00000000       0.00000000       0.00000000       0.00000000       0.00000000       0.00000000       0.00000000
H        4.20923268       0.81006721      20.00000000        3       1.00000000       0.00000000       0.00000000       0.00000000       0.00000000       0.00000000       0.00000000
H        0.00000000       3.24026883      20.00000000        3       1.00000000       0.00000000       0.00000000       0.00000000       0.00000000       0.00000000       0.00000000
H        2.80615512       3.24026883      20.00000000        3       1.00000000       0.00000000       0.00000000       0.00000000       0.00000000       0.00000000       0.00000000
H        0.00000000       1.62013441      22.29121606        2       1.00000000       0.00000000       0.00000000       0.00000000       0.00000000       0.00000000       0.00000000
H        2.80615512       1.62013441      22.29121606        2       1.00000000       0.00000000       0.00000000       0.00000000       0.00000000       0.00000000       0.00000000
H        1.40307756       4.05033604      22.29121606        2       1.00000000       0.00000000       0.00000000       0.00000000       0.00000000       0.00000000       0.00000000
H        4.20923268       4.05033604      22.29121606        2       1.00000000       0.00000000       0.00000000       0.00000000       0.00000000       0.00000000       0.00000000
H        0.00000000       0.00000000      24.58243212        1       1.00000000       0.00000000       0.00000000       0.00000000       0.00000000       0.00000000       0.00000000
H        2.80615512       0.00000000      24.58243212        1       1.00000000       0.00000000       0.00000000       0.00000000       0.00000000       0.00000000       0.00000000
H        1.40307756       2.43020162      24.58243212        1       1.00000000       0.00000000       0.00000000       0.00000000       0.00000000       0.00000000       0.00000000
H        4.20923268       2.43020162      24.58243212        1       1.00000000       0.00000000       0.00000000       0.00000000       0.00000000       0.00000000       0.00000000
H        1.41041056       2.34819662      29.02369105        0       1.00000000       0.01574517       0.00281267      -0.01818202       0.07869572      -0.04863372      -0.08828331
H        0.02152920       1.53181017      31.25348027        0       1.00000000       0.02474014       0.02842157      -0.02532687       0.01981199      -0.07735222      -0.00354188
H       -0.01432683       4.81915630      29.02548351        0       1.00000000       0.00619898      -0.00925476      -0.02535167      -0.00966889       0.11167361      -0.05632932
H        1.40528545       4.05016031      26.81268253        0       1.00000000       0.02223582      -0.02315286      -0.06214771      -0.15293495      -0.16053646       0.10756588
H        2.83791412       1.57838550      31.20789132        0       1.00000000      -0.01929170      -0.00965936      -0.02883680      -0.06414820       0.05902205      -0.07443031
H        4.19709862       2.39053288      29.00271865        0       1.00000000       0.03128177       0.04561598      -0.02852327      -0.03907870      -0.09048187       0.13968167
H        1.41907180       3.97974239      31.26670886        0       1.00000000      -0.07195875       0.04634416      -0.03318401       0.01154535      -0.02479767       0.03224947
H        2.78292521       4.77185098      29.03372197        0       1.00000000      -0.00691866      -0.05183464      -0.07018383       0.05246365       0.06028203       0.06540125
H        2.80872137       1.61209378      26.78200932        0       1.00000000       0.00413631      -0.02597046      -0.05360725       0.11522407       0.15159144       0.14417677
H        4.19651539       4.04071998      26.81736201        0       1.00000000      -0.03982670      -0.00171459      -0.00246789      -0.06188610      -0.07396633       0.00208938
H        4.18651473       4.01828048      31.22811296        0       1.00000000       0.00775231       0.06385186      -0.02457263      -0.03146578       0.03090897      -0.04883839
H        5.62494049       1.60905084      26.82395627        0       1.00000000      -0.03242420       0.04849532      -0.02454740       0.01825868      -0.01444382      -0.03193787
24
Lattice="5.612310241546866 0.0 0.0 0.0 4.860403243099165 0.0 0.0 0.0 44.58243212332868" Properties=species:S:1:pos:R:3:tags:I:1:masses:R:1:momenta:R:3:forces:R:3 KEmax=31.022389213981967 iter=86960 volume=1216.1236359717223 set_wall=T ns_energy=-16.728563385126158 last_walked_iter_clone=86819 energy=-16.75013847230305 stress="0.02381203791233343 -0.0006048931805256107 0.00079582269964084 -0.0006048931805256107 0.024311919609758547 0.000473578150866292 0.00079582269964084 0.000473578150866292 0.008966382508697641" pbc="T T F"
H        1.40307756       0.81006721      20.00000000        3       1.00000000       0.00000000       0.00000000       0.00000000       0.00000000       0.00000000       0.00000000
H        4.20923268       0.81006721      20.00000000        3       1.00000000       0.00000000       0.00000000       0.00000000       0.00000000       0.00000000       0.00000000
H        0.00000000       3.24026883      20.00000000        3       1.00000000       0.00000000       0.00000000       0.00000000       0.00000000       0.00000000       0.00000000
H        2.80615512       3.24026883      20.00000000        3       1.00000000       0.00000000       0.00000000       0.00000000       0.00000000       0.00000000       0.00000000
H        0.00000000       1.62013441      22.29121606        2       1.00000000       0.00000000       0.00000000       0.00000000       0.00000000       0.00000000       0.00000000
H        2.80615512       1.62013441      22.29121606        2       1.00000000       0.00000000       0.00000000       0.00000000       0.00000000       0.00000000       0.00000000
H        1.40307756       4.05033604      22.29121606        2       1.00000000       0.00000000       0.00000000       0.00000000       0.00000000       0.00000000       0.00000000
H        4.20923268       4.05033604      22.29121606        2       1.00000000       0.00000000       0.00000000       0.00000000       0.00000000       0.00000000       0.00000000
H        0.00000000       0.00000000      24.58243212        1       1.00000000       0.00000000       0.00000000       0.00000000       0.00000000       0.00000000       0.00000000
H        2.80615512       0.00000000      24.58243212        1       1.00000000       0.00000000       0.00000000       0.00000000       0.00000000       0.00000000       0.00000000
H        1.40307756       2.43020162      24.58243212        1       1.00000000       0.00000000       0.00000000       0.00000000       0.00000000       0.00000000       0.00000000
H        4.20923268       2.43020162      24.58243212        1       1.00000000       0.00000000       0.00000000       0.00000000       0.00000000       0.00000000       0.00000000
H        1.32430676       2.47962779      28.97687280        0       1.00000000      -0.00626967      -0.02709872       0.01673278       0.07869572      -0.04863372      -0.08828331
H        5.56330113       1.65843575      31.22193607        0       1.00000000      -0.00743987       0.04249736      -0.00236525       0.01981199      -0.07735222      -0.00354188
H       -0.06126312       0.04576158      29.02783036        0       1.00000000      -0.01888550       0.04831890       0.00041473      -0.00966889       0.11167361      -0.05632932
H        1.38938353       4.04476525      26.80540103        0       1.00000000      -0.02849562      -0.04062390      -0.04371667      -0.15293495      -0.16053646       0.10756588
H        2.76159606       1.67473343      31.21860222        0       1.00000000      -0.06696778      -0.03677712      -0.02021309      -0.06414820       0.05902205      -0.07443031
H        4.13934248       2.48343080      28.99516316        0       1.00000000       0.01738857      -0.01349345      -0.00918872      -0.03907870      -0.09048187       0.13968167
H        1.37072548       4.07363787      31.24953304        0       1.00000000       0.03277665       0.00604155      -0.02461749       0.01154535      -0.02479767       0.03224947
H        2.74892308       0.03300564      29.02737343        0       1.00000000      -0.07419515       0.01891531      -0.03012154       0.05246365       0.06028203       0.06540125
H        2.77443073       1.65728437      26.79655529        0       1.00000000       0.09243084      -0.00439692       0.05317591       0.11522407       0.15159144       0.14417677
H        4.20025065       4.05776864      26.79503351        0       1.00000000      -0.01127231       0.01265460       0.04586575      -0.06188610      -0.07396633       0.00208938
H        4.15974384       4.04696601      31.23434034        0       1.00000000       0.01085629      -0.01526298       0.03345799      -0.03146578       0.03090897      -0.04883839
H        5.58180828       1.59570008      26.75723272        0       1.00000000      -0.06410269      -0.02649541      -0.00304845       0.01825868      -0.01444382      -0.03193787
24
Lattice="5.612310241546866 0.0 0.0 0.0 4.860403243099165 0.0 0.0 0.0 44.58243212332868" Properties=species:S:1:pos:R:3:tags:I:1:masses:R:1:momenta:R:3:forces:R:3 KEmax=31.022389213981967 iter=86960 volume=1216.1236359717223 set_wall=T ns_energy=-16.727741002839174 last_walked_iter_clone=86720 energy=-16.75013847230305 stress="0.02381203791233343 -0.0006048931805256107 0.00079582269964084 -0.0006048931805256107 0.024311919609758547 0.000473578150866292 0.00079582269964084 0.000473578150866292 0.008966382508697641" pbc="T T F"
H        1.40307756       0.81006721      20.00000000        3       1.00000000       0.00000000       0.00000000       0.00000000       0.00000000       0.00000000       0.00000000
H        4.20923268       0.81006721      20.00000000        3       1.00000000       0.00000000       0.00000000       0.00000000       0.00000000       0.00000000       0.00000000
H        0.00000000       3.24026883      20.00000000        3       1.00000000       0.00000000       0.00000000       0.00000000       0.00000000       0.00000000       0.00000000
H        2.80615512       3.24026883      20.00000000        3       1.00000000       0.00000000       0.00000000       0.00000000       0.00000000       0.00000000       0.00000000
H        0.00000000       1.62013441      22.29121606        2       1.00000000       0.00000000       0.00000000       0.00000000       0.00000000       0.00000000       0.00000000
H        2.80615512       1.62013441      22.29121606        2       1.00000000       0.00000000       0.00000000       0.00000000       0.00000000       0.00000000       0.00000000
H        1.40307756       4.05033604      22.29121606        2       1.00000000       0.00000000       0.00000000       0.00000000       0.00000000       0.00000000       0.00000000
H        4.20923268       4.05033604      22.29121606        2       1.00000000       0.00000000       0.00000000       0.00000000       0.00000000       0.00000000       0.00000000
H        0.00000000       0.00000000      24.58243212        1       1.00000000       0.00000000       0.00000000       0.00000000       0.00000000       0.00000000       0.00000000
H        2.80615512       0.00000000      24.58243212        1       1.00000000       0.00000000       0.00000000       0.00000000       0.00000000       0.00000000       0.00000000
H        1.40307756       2.43020162      24.58243212        1       1.00000000       0.00000000       0.00000000       0.00000000       0.00000000       0.00000000       0.00000000
H        4.20923268       2.43020162      24.58243212        1       1.00000000       0.00000000       0.00000000       0.00000000       0.00000000       0.00000000       0.00000000
H        1.38829123       2.41747156      28.99870949        0       1.00000000      -0.00299637       0.01214633       0.00684673       0.07869572      -0.04863372      -0.08828331
H        0.04383074       1.54779588      31.18066565        0       1.00000000       0.00593190       0.00839587       0.04948238       0.01981199      -0.07735222      -0.00354188
H        0.02255423       4.80715380      29.01206542        0       1.00000000      -0.04249187      -0.08647316      -0.03175912      -0.00966889       0.11167361      -0.05632932
H        1.41392270       4.05564053      26.78253662        0       1.00000000      -0.02094729       0.00759476       0.03436449      -0.15293495      -0.16053646       0.10756588
H        2.84863098       1.55258065      31.28469374        0       1.00000000      -0.02300227       0.00280150       0.01734499      -0.06414820       0.05902205      -0.07443031
H        4.20379272       2.36320247      29.01926047        0       1.00000000      -0.01687250       0.01330789      -0.05136700      -0.03907870      -0.09048187       0.13968167
H        1.42384589       3.95794787      31.23634494        0       1.00000000       0.06427717       0.01433797      -0.00409396       0.01154535      -0.02479767       0.03224947
H        2.81936139       4.81241312      29.04193531        0       1.00000000      -0.02010703       0.01755987       0.01173538       0.05246365       0.06028203       0.06540125
H        2.78766737       1.57252422      26.81012835        0       1.00000000      -0.06708413       0.01795328      -0.03370890       0.11522407       0.15159144       0.14417677
H        4.17977025       4.03843546      26.79912744        0       1.00000000       0.04403660       0.00473484      -0.04502282      -0.06188610      -0.07396633       0.00208938
H        4.23821261       3.98713203      31.27905078        0       1.00000000      -0.03737532      -0.00437043      -0.03090313      -0.03146578       0.03090897      -0.04883839
H       -0.00417265       1.62346061      26.82490891        0       1.00000000      -0.03804170      -0.01028051      -0.04221507       0.01825868      -0.01444382      -0.03193787
24
Lattice="5.612310241546866 0.0 0.0 0.0 4.860403243099165 0.0 0.0 0.0 44.58243212332868" Properties=species:S:1:pos:R:3:tags:I:1:masses:R:1:momenta:R:3:forces:R:3 KEmax=31.022389213981967 iter=86960 volume=1216.1236359717223 set_wall=T ns_energy=-16.727284275743134 last_walked_iter_clone=86841 energy=-16.75013847230305 stress="0.02381203791233343 -0.0006048931805256107 0.00079582269964084 -0.0006048931805256107 0.024311919609758547 0.000473578150866292 0.00079582269964084 0.000473578150866292 0.008966382508697641" pbc="T T F"
H        1.40307756       0.81006721      20.00000000        3       1.00000000       0.00000000       0.00000000       0.00000000       0.00000000       0.00000000       0.00000000
H        4.20923268       0.81006721      20.00000000        3       1.00000000       0.00000000       0.00000000       0.00000000       0.00000000       0.00000000       0.00000000
H        0.00000000       3.24026883      20.00000000        3       1.00000000       0.00000000       0.00000000       0.00000000       0.00000000       0.00000000       0.00000000
H        2.80615512       3.24026883      20.00000000        3       1.00000000       0.00000000       0.00000000       0.00000000       0.00000000       0.00000000       0.00000000
H        0.00000000       1.62013441      22.29121606        2       1.00000000       0.00000000       0.00000000       0.00000000       0.00000000       0.00000000       0.00000000
H        2.80615512       1.62013441      22.29121606        2       1.00000000       0.00000000       0.00000000       0.00000000       0.00000000       0.00000000       0.00000000
H        1.40307756       4.05033604      22.29121606        2       1.00000000       0.00000000       0.00000000       0.00000000       0.00000000       0.00000000       0.00000000
H        4.20923268       4.05033604      22.29121606        2       1.00000000       0.00000000       0.00000000       0.00000000       0.00000000       0.00000000       0.00000000
H        0.00000000       0.00000000      24.58243212        1       1.00000000       0.00000000       0.00000000       0.00000000       0.00000000       0.00000000       0.00000000
H        2.80615512       0.00000000      24.58243212        1       1.00000000       0.00000000       0.00000000       0.00000000       0.00000000       0.00000000       0.00000000
H        1.40307756       2.43020162      24.58243212        1       1.00000000       0.00000000       0.00000000       0.00000000       0.00000000       0.00000000       0.00000000
H        4.20923268       2.43020162      24.58243212        1       1.00000000       0.00000000       0.00000000       0.00000000       0.00000000       0.00000000       0.00000000
H        1.43209275       2.41843434      29.02750005        0       1.00000000      -0.02908247       0.02762676      -0.00354252       0.07869572      -0.04863372      -0.08828331
H        0.03774383       1.65633103      31.25232847        0       1.00000000       0.01385576       0.02043336      -0.07467531       0.01981199      -0.07735222      -0.00354188
H       -0.01090006      -0.00622275      29.01777514        0       1.00000000      -0.00143372      -0.06722599      -0.02176231      -0.00966889       0.11167361      -0.05632932
H        1.36433450       4.06425242      26.80655292        0       1.00000000      -0.03267132      -0.03957784      -0.00611508      -0.15293495      -0.16053646       0.10756588
H        2.85794242       1.61667930      31.19299775        0       1.00000000      -0.02354063       0.00595060      -0.01003138      -0.06414820       0.05902205      -0.07443031
H        4.24761278       2.39890604      28.98466082        0       1.00000000      -0.00343084      -0.00728523      -0.06906472      -0.03907870      -0.09048187       0.13968167
H        1.44178750       4.06431805      31.20985522        0       1.00000000      -0.04682325      -0.06458690       0.03129580       0.01154535      -0.02479767       0.03224947
H        2.83682694      -0.00828514      28.94921635        0       1.00000000       0.05616098      -0.02075448       0.03016729       0.05246365       0.06028203       0.06540125
H        2.81064246       1.63862223      26.78754877        0       1.00000000      -0.01926864      -0.00600626       0.00217739       0.11522407       0.15159144       0.14417677
H        4.24120738       4.03790139      26.76588734        0       1.00000000       0.00837932       0.01095063      -0.00351192      -0.06188610      -0.07396633       0.00208938
H        4.23525635       4.09873264      31.23650580        0       1.00000000      -0.01599951      -0.00005924      -0.06024546      -0.03146578       0.03090897      -0.04883839
H       -0.00935465       1.59060084      26.79804223        0       1.00000000      -0.02322494      -0.03024072      -0.04037644       0.01825868      -0.01444382      -0.03193787
24
Lattice="5.612310241546866 0.0 0.0 0.0 4.860403243099165 0.0 0.0 0.0 44.58243212332868" Properties=species:S:1:pos:R:3:tags:I:1:masses:R:1:momenta:R:3:forces:R:3 KEmax=31.022389213981967 iter=86960 volume=1216.1236359717223 set_wall=T ns_energy=-16.728113972937894 last_walked_iter_clone=86675 energy=-16.75013847230305 stress="0.02381203791233343 -0.0006048931805256107 0.00079582269964084 -0.0006048931805256107 0.024311919609758547 0.000473578150866292 0.00079582269964084 0.000473578150866292 0.008966382508697641" pbc="T T F"
H        1.40307756       0.81006721      20.00000000        3       1.00000000       0.00000000       0.00000000       0.00000000       0.00000000       0.00000000       0.00000000
H        4.20923268       0.81006721      20.00000000        3       1.00000000       0.00000000       0.00000000       0.00000000       0.00000000       0.00000000       0.00000000
H        0.00000000       3.24026883      20.00000000        3       1.00000000       0.00000000       0.00000000       0.00000000       0.00000000       0.00000000       0.00000000
H        2.80615512       3.24026883      20.00000000        3       1.00000000       0.00000000       0.00000000       0.00000000       0.00000000       0.00000000       0.00000000
H        0.00000000       1.62013441      22.29121606        2       1.00000000       0.00000000       0.00000000       0.00000000       0.00000000       0.00000000       0.00000000
H        2.80615512       1.62013441      22.29121606        2       1.00000000       0.00000000       0.00000000       0.00000000       0.00000000       0.00000000       0.00000000
H        1.40307756       4.05033604      22.29121606        2       1.00000000       0.00000000       0.00000000       0.00000000       0.00000000       0.00000000       0.00000000
H        4.20923268       4.05033604      22.29121606        2       1.00000000       0.00000000       0.00000000       0.00000000       0.00000000       0.00000000       0.00000000
H        0.00000000       0.00000000      24.58243212        1       1.00000000       0.00000000       0.00000000       0.00000000       0.00000000       0.00000000       0.00000000
H        2.80615512       0.00000000      24.58243212        1       1.00000000       0.00000000       0.00000000       0.00000000       0.00000000       0.00000000       0.00000000
H        1.40307756       2.43020162      24.58243212        1       1.00000000       0.00000000       0.00000000       0.00000000       0.00000000       0.00000000       0.00000000
H        4.20923268       2.43020162      24.58243212        1       1.00000000       0.00000000       0.00000000       0.00000000       0.00000000       0.00000000       0.00000000
H        1.40326395       2.38596146      29.03333003        0       1.00000000      -0.00188321      -0.03430003      -0.00333935       0.07869572      -0.04863372      -0.08828331
H        0.07648016       1.49064054      31.27087081        0       1.00000000       0.02656545      -0.03515578       0.02645762       0.01981199      -0.07735222      -0.00354188
H        0.01952119       4.81252842      29.01883512        0       1.00000000      -0.03622667       0.04897708       0.04898735      -0.00966889       0.11167361      -0.05632932
H        1.41792091       4.02974859      26.79605964        0       1.00000000       0.00556026       0.02682398       0.01489647      -0.15293495      -0.16053646       0.10756588
H        2.82275021       1.49748903      31.28467083        0       1.00000000      -0.02191509      -0.01866868      -0.00083723      -0.06414820       0.05902205      -0.07443031
H        4.23117430       2.37507681      29.04059944        0       1.00000000       0.05496753      -0.02612221       0.05190467      -0.03907870      -0.09048187       0.13968167
H        1.44012810       3.95165506      31.24852109        0       1.00000000      -0.01594715      -0.01510683      -0.00720776       0.01154535      -0.02479767       0.03224947
H        2.81904538       4.82909856      29.02704497        0       1.00000000      -0.01164970      -0.03901273       0.08627885       0.05246365       0.06028203       0.06540125
H        2.80433668       1.58483568      26.82449105        0       1.00000000      -0.02430015       0.02040288       0.04141278       0.11522407       0.15159144       0.14417677
H        4.23172538       4.03565239      26.84239383        0       1.00000000       0.00515436      -0.06594592       0.01055207      -0.06188610      -0.07396633       0.00208938
H        4.28472503       3.92572358      31.24943547        0       1.00000000      -0.04687062       0.01513534      -0.02691780      -0.03146578       0.03090897      -0.04883839
H        0.00802623       1.60507888      26.79803776        0       1.00000000       0.00201900       0.04569530       0.00903725       0.01825868      -0.01444382      -0.03193787
24
Lattice="5.612310241546866 0.0 0.0 0.0 4.860403243099165 0.0 0.0 0.0 44.58243212332868" Properties=species:S:1:pos:R:3:tags:I:1:masses:R:1:momenta:R:3:forces:R:3 KEmax=31.022389213981967 iter=86960 volume=1216.1236359717223 set_wall=T ns_energy=-16.727126388792225 last_walked_iter_clone=86687 energy=-16.75013847230305 stress="0.02381203791233343 -0.0006048931805256107 0.00079582269964084 -0.0006048931805256107 0.024311919609758547 0.000473578150866292 0.00079582269964084 0.000473578150866292 0.008966382508697641" pbc="T T F"
H        1.40307756       0.81006721      20.00000000        3       1.00000000       0.00000000       0.00000000       0.00000000       0.00000000       0.00000000       0.00000000
H        4.20923268       0.81006721      20.00000000        3       1.00000000       0.00000000       0.00000000       0.00000000       0.00000000       0.00000000       0.00000000
H        0.00000000       3.24026883      20.00000000        3       1.00000000       0.00000000       0.00000000       0.00000000       0.00000000       0.00000000       0.00000000
H        2.80615512       3.24026883      20.00000000        3       1.00000000       0.00000000       0.00000000       0.00000000       0.00000000       0.00000000       0.00000000
H        0.00000000       1.62013441      22.29121606        2       1.00000000       0.00000000       0.00000000       0.00000000       0.00000000       0.00000000       0.00000000
H        2.80615512       1.62013441      22.29121606        2       1.00000000       0.00000000       0.00000000       0.00000000       0.00000000       0.00000000       0.00000000
H        1.40307756       4.05033604      22.29121606        2       1.00000000       0.00000000       0.00000000       0.00000000       0.00000000       0.00000000       0.00000000
H        4.20923268       4.05033604      22.29121606        2       1.00000000       0.00000000       0.00000000       0.00000000       0.00000000       0.00000000       0.00000000
H        0.00000000       0.00000000      24.58243212        1       1.00000000       0.00000000       0.00000000       0.00000000       0.00000000       0.00000000       0.00000000
H        2.80615512       0.00000000      24.58243212        1       1.00000000       0.00000000       0.00000000       0.00000000       0.00000000       0.00000000       0.00000000
H        1.40307756       2.43020162      24.58243212        1       1.00000000       0.00000000       0.00000000       0.00000000       0.00000000       0.00000000       0.00000000
H        4.20923268       2.43020162      24.58243212        1       1.00000000       0.00000000       0.00000000       0.00000000       0.00000000       0.00000000       0.00000000
H        2.76729053       3.22526053      31.23312496        0       1.00000000      -0.03930411       0.03732642      -0.04068411       0.07869572      -0.04863372      -0.08828331
H        4.14117319       4.01362717      29.01796542        0       1.00000000       0.05611760      -0.02418977       0.03760200       0.01981199      -0.07735222      -0.00354188
H        1.37131101       0.79730915      31.15831099        0       1.00000000       0.03021711      -0.00400701      -0.02914032      -0.00966889       0.11167361      -0.05632932
H        2.74511556       1.59481956      28.94086343        0       1.00000000      -0.06903329       0.02711068       0.03479357      -0.15293495      -0.16053646       0.10756588
H        5.56284720       3.25936234      31.19023250        0       1.00000000       0.02326882      -0.00760374       0.01869276      -0.06414820       0.05902205      -0.07443031
H        5.55197406       1.57914907      28.98551038        0       1.00000000      -0.00640887      -0.03582510       0.02516323      -0.03907870      -0.09048187       0.13968167
H        5.57924915       3.20597528      26.79204275        0       1.00000000       0.05556737       0.05616041       0.03573295       0.01154535      -0.02479767       0.03224947
H        2.79686462       3.23970191      26.77919286        0       1.00000000      -0.01800915      -0.05646643       0.02432447       0.05246365       0.06028203       0.06540125
H        4.20334162       0.78600364      26.80088708        0       1.00000000      -0.03938774      -0.01751479      -0.00905608       0.11522407       0.15159144       0.14417677
H        1.36757583       0.77980797      26.77347218        0       1.00000000       0.02678048      -0.04648740       0.02376168      -0.06188610      -0.07396633       0.00208938
H        1.34692903       4.02880806      28.98374624        0       1.00000000       0.00700528      -0.08462213      -0.02204475      -0.03146578       0.03090897      -0.04883839
H        4.15963955       0.83316804      31.17596376        0       1.00000000      -0.02163724      -0.02015636       0.00751101       0.01825868      -0.01444382      -0.03193787
24
Lattice="5.612310241546866 0.0 0.0 0.0 4.860403243099165 0.0 0.0 0.0 44.58243212332868" Properties=species:S:1:pos:R:3:tags:I:1:masses:R:1:momenta:R:3:forces:R:3 KEmax=31.022389213981967 iter=86960 volume=1216.1236359717223 set_wall=T ns_energy=-16.72810241133697 last_walked_iter_clone=86864 energy=-16.75013847230305 stress="0.02381203791233343 -0.0006048931805256107 0.00079582269964084 -0.0006048931805256107 0.024311919609758547 0.000473578150866292 0.00079582269964084 0.000473578150866292 0.008966382508697641" pbc="T T F"