21
Lattice="5.612310241546866 0.0 0.0 0.0 4.860403243099165 0.0 0.0 0.0 24.582432123328676" Properties=species:S:1:pos:R:3:tags:I:1:masses:R:1:momenta:R:3:forces:R:3 KEmax=27.14459056223422 iter=119999 volume=670.5618179858607 ns_energy=-14.087860257898377 last_walked_iter_clone=119978 energy=-14.087860257893803 stress="0.009827478496446784 7.3528907859793305e-09 7.658707918908175e-09 7.3528907859793305e-09 0.00985481026576693 -8.748193378451214e-09 7.658707918908175e-09 -8.748193378451214e-09 0.004937504230620201" pbc="T T T"
H        1.40307756       0.81006721      10.00000000        3       1.00000000       0.00000000       0.00000000       0.00000000       0.00000000       0.00000000       0.00000000
H        4.20923268       0.81006721      10.00000000        3       1.00000000       0.00000000       0.00000000       0.00000000       0.00000000       0.00000000       0.00000000
H        0.00000000       3.24026883      10.00000000        3       1.00000000       0.00000000       0.00000000       0.00000000       0.00000000       0.00000000       0.00000000
H        2.80615512       3.24026883      10.00000000        3       1.00000000       0.00000000       0.00000000       0.00000000       0.00000000       0.00000000       0.00000000
H        0.00000000       1.62013441      12.29121606        2       1.00000000       0.00000000       0.00000000       0.00000000       0.00000000       0.00000000       0.00000000
H        2.80615512       1.62013441      12.29121606        2       1.00000000       0.00000000       0.00000000       0.00000000       0.00000000       0.00000000       0.00000000
H        1.40307756       4.05033604      12.29121606        2       1.00000000       0.00000000       0.00000000       0.00000000       0.00000000       0.00000000       0.00000000
H        4.20923268       4.05033604      12.29121606        2       1.00000000       0.00000000       0.00000000       0.00000000       0.00000000       0.00000000       0.00000000
H        0.00000000       0.00000000      14.58243212        1       1.00000000       0.00000000       0.00000000       0.00000000       0.00000000       0.00000000       0.00000000
H        2.80615512       0.00000000      14.58243212        1       1.00000000       0.00000000       0.00000000       0.00000000       0.00000000       0.00000000       0.00000000
H        1.40307756       2.43020162      14.58243212        1       1.00000000       0.00000000       0.00000000       0.00000000       0.00000000       0.00000000       0.00000000
H        4.20923268       2.43020162      14.58243212        1       1.00000000       0.00000000       0.00000000       0.00000000       0.00000000       0.00000000       0.00000000
H        1.40307787       0.79347310      16.80071542        0       1.00000000       0.00000037      -0.00000066      -0.00000015      -0.00000044      -0.00000525      -0.00000277
H        5.60494746       3.24443080      16.79599983        0       1.00000000       0.00000027      -0.00000085       0.00000026      -0.00000039       0.00000402       0.00000233
H        0.00000034      -0.00000005       7.77172656        0       1.00000000      -0.00000017       0.00000200       0.00000044       0.00000218      -0.00000279       0.00000265
H        4.20923282       0.81922412      16.83184628        0       1.00000000      -0.00000136       0.00000048      -0.00000030      -0.00000027      -0.00000433       0.00000227
H        2.80615484      -0.00000044       7.77172618        0       1.00000000       0.00000118       0.00000137       0.00000011      -0.00000054      -0.00000008       0.00000067
H        1.40307792       2.43020166       7.77172717        0       1.00000000      -0.00000035      -0.00000083       0.00000162      -0.00000487       0.00000143      -0.00000013
H        1.40307800       2.42881013      19.01468799        0       1.00000000       0.00000045       0.00000187      -0.00000199       0.00000102       0.00000161       0.00000112
H        4.20923319       2.43020170       7.77172661        0       1.00000000      -0.00000177       0.00000016       0.00000142       0.00000494       0.00000127      -0.00000029
H        2.81351898       3.24443053      16.79599970        0       1.00000000      -0.00000078      -0.00000066       0.00000091      -0.00000155       0.00000550       0.00000508
21
Lattice="5.612310241546866 0.0 0.0 0.0 4.860403243099165 0.0 0.0 0.0 24.582432123328676" Properties=species:S:1:pos:R:3:tags:I:1:masses:R:1:momenta:R:3:forces:R:3 KEmax=27.14459056223422 iter=119999 volume=670.5618179858607 ns_energy=-14.087860257898228 last_walked_iter_clone=119919 energy=-14.087860257893803 stress="0.009827478496446784 7.3528907859793305e-09 7.658707918908175e-09 7.3528907859793305e-09 0.00985481026576693 -8.748193378451214e-09 7.658707918908175e-09 -8.748193378451214e-09 0.004937504230620201" pbc="T T T"
H        1.40307756       0.81006721      10.00000000        3       1.00000000       0.00000000       0.00000000       0.00000000       0.00000000       0.00000000       0.00000000
H        4.20923268       0.81006721      10.00000000        3       1.00000000       0.00000000       0.00000000       0.00000000       0.00000000       0.00000000       0.00000000
H        0.00000000       3.24026883      10.00000000        3       1.00000000       0.00000000       0.00000000       0.00000000       0.00000000       0.00000000       0.00000000
H        2.80615512       3.24026883      10.00000000        3       1.00000000       0.00000000       0.00000000       0.00000000       0.00000000       0.00000000       0.00000000
H        0.00000000       1.62013441      12.29121606        2       1.00000000       0.00000000       0.00000000       0.00000000       0.00000000       0.00000000       0.00000000
H        2.80615512       1.62013441      12.29121606        2       1.00000000       0.00000000       0.00000000       0.00000000       0.00000000       0.00000000       0.00000000
H        1.40307756       4.05033604      12.29121606        2       1.00000000       0.00000000       0.00000000       0.00000000       0.00000000       0.00000000       0.00000000
H        4.20923268       4.05033604      12.29121606        2       1.00000000       0.00000000       0.00000000       0.00000000       0.00000000       0.00000000       0.00000000
H        0.00000000       0.00000000      14.58243212        1       1.00000000       0.00000000       0.00000000       0.00000000       0.00000000       0.00000000       0.00000000
H        2.80615512       0.00000000      14.58243212        1       1.00000000       0.00000000       0.00000000       0.00000000       0.00000000       0.00000000       0.00000000
H        1.40307756       2.43020162      14.58243212        1       1.00000000       0.00000000       0.00000000       0.00000000       0.00000000       0.00000000       0.00000000
H        4.20923268       2.43020162      14.58243212        1       1.00000000       0.00000000       0.00000000       0.00000000       0.00000000       0.00000000       0.00000000
H        1.40307774       0.79347283      16.80071706        0       1.00000000      -0.00000144      -0.00000076      -0.00000093      -0.00000044      -0.00000525      -0.00000277
H        5.60494776       3.24443107      16.79599993        0       1.00000000       0.00000023       0.00000034       0.00000018      -0.00000039       0.00000402       0.00000233
H        5.61230905      -0.00000007       7.77172680        0       1.00000000      -0.00000081       0.00000081       0.00000046       0.00000218      -0.00000279       0.00000265
H        4.20923343       0.81922423      16.83184664        0       1.00000000       0.00000057       0.00000079      -0.00000056      -0.00000027      -0.00000433       0.00000227
H        2.80615432      -0.00000023       7.77172659        0       1.00000000      -0.00000200       0.00000072      -0.00000051      -0.00000054      -0.00000008       0.00000067
H        1.40307679       2.43020198       7.77172780        0       1.00000000      -0.00000029      -0.00000102      -0.00000005      -0.00000487       0.00000143      -0.00000013
H        1.40307851       2.42881250      19.01468872        0       1.00000000       0.00000087       0.00000107       0.00000017       0.00000102       0.00000161       0.00000112
H        4.20923228       2.43020102       7.77172777        0       1.00000000       0.00000169      -0.00000316      -0.00000057       0.00000494       0.00000127      -0.00000029
H        2.81351909       3.24443072      16.79599910        0       1.00000000       0.00000011       0.00000060       0.00000058      -0.00000155       0.00000550       0.00000508
21
Lattice="5.612310241546866 0.0 0.0 0.0 4.860403243099165 0.0 0.0 0.0 24.582432123328676" Properties=species:S:1:pos:R:3:tags:I:1:masses:R:1:momenta:R:3:forces:R:3 KEmax=27.14459056223422 iter=119999 volume=670.5618179858607 ns_energy=-14.087860257897667 last_walked_iter_clone=119688 energy=-14.087860257893803 stress="0.009827478496446784 7.3528907859793305e-09 7.658707918908175e-09 7.3528907859793305e-09 0.00985481026576693 -8.748193378451214e-09 7.658707918908175e-09 -8.748193378451214e-09 0.004937504230620201" pbc="T T T"
H        1.40307756       0.81006721      10.00000000        3       1.00000000       0.00000000       0.00000000       0.00000000       0.00000000       0.00000000       0.00000000
H        4.20923268       0.81006721      10.00000000        3       1.00000000       0.00000000       0.00000000       0.00000000       0.00000000       0.00000000       0.00000000
H        0.00000000       3.24026883      10.00000000        3       1.00000000       0.00000000       0.00000000       0.00000000       0.00000000       0.00000000       0.00000000
H        2.80615512       3.24026883      10.00000000        3       1.00000000       0.00000000       0.00000000       0.00000000       0.00000000       0.00000000       0.00000000
H        0.00000000       1.62013441      12.29121606        2       1.00000000       0.00000000       0.00000000       0.00000000       0.00000000       0.00000000       0.00000000
H        2.80615512       1.62013441      12.29121606        2       1.00000000       0.00000000       0.00000000       0.00000000       0.00000000       0.00000000       0.00000000
H        1.40307756       4.05033604      12.29121606        2       1.00000000       0.00000000       0.00000000       0.00000000       0.00000000       0.00000000       0.00000000
H        4.20923268       4.05033604      12.29121606        2       1.00000000       0.00000000       0.00000000       0.00000000       0.00000000       0.00000000       0.00000000
H        0.00000000       0.00000000      14.58243212        1       1.00000000       0.00000000       0.00000000       0.00000000       0.00000000       0.00000000       0.00000000
H        2.80615512       0.00000000      14.58243212        1       1.00000000       0.00000000       0.00000000       0.00000000       0.00000000       0.00000000       0.00000000
H        1.40307756       2.43020162      14.58243212        1       1.00000000       0.00000000       0.00000000       0.00000000       0.00000000       0.00000000       0.00000000
H        4.20923268       2.43020162      14.58243212        1       1.00000000       0.00000000       0.00000000       0.00000000       0.00000000       0.00000000       0.00000000
H        1.40307802       0.79347260      16.80071682        0       1.00000000      -0.00000013       0.00000006      -0.00000114      -0.00000044      -0.00000525      -0.00000277
H        5.60494784       3.24443072      16.79600049        0       1.00000000       0.00000066      -0.00000039       0.00000060      -0.00000039       0.00000402       0.00000233
H        5.61231026       4.86040373       7.77172684        0       1.00000000      -0.00000038      -0.00000048       0.00000179       0.00000218      -0.00000279       0.00000265
H        4.20923414       0.81922371      16.83184744        0       1.00000000       0.00000113       0.00000085       0.00000063      -0.00000027      -0.00000433       0.00000227
H        2.80615618       4.86040475       7.77172785        0       1.00000000      -0.00000016      -0.00000033      -0.00000041      -0.00000054      -0.00000008       0.00000067
H        1.40307776       2.43020293       7.77172741        0       1.00000000      -0.00000042       0.00000010       0.00000012      -0.00000487       0.00000143      -0.00000013
H        1.40307859       2.42881259      19.01468816        0       1.00000000      -0.00000111      -0.00000089       0.00000164       0.00000102       0.00000161       0.00000112
H        4.20923262       2.43020262       7.77172755        0       1.00000000      -0.00000014      -0.00000045       0.00000004       0.00000494       0.00000127      -0.00000029
H        2.81351947       3.24443074      16.79599994        0       1.00000000      -0.00000089       0.00000066       0.00000159      -0.00000155       0.00000550       0.00000508
21
Lattice="5.612310241546866 0.0 0.0 0.0 4.860403243099165 0.0 0.0 0.0 24.582432123328676" Properties=species:S:1:pos:R:3:tags:I:1:masses:R:1:momenta:R:3:forces:R:3 KEmax=27.14459056223422 iter=119999 volume=670.5618179858607 ns_energy=-14.08786025789785 last_walked_iter_clone=119987 energy=-14.087860257893803 stress="0.009827478496446784 7.3528907859793305e-09 7.658707918908175e-09 7.3528907859793305e-09 0.00985481026576693 -8.748193378451214e-09 7.658707918908175e-09 -8.748193378451214e-09 0.004937504230620201" pbc="T T T"
H        1.40307756       0.81006721      10.00000000        3       1.00000000       0.00000000       0.00000000       0.00000000       0.00000000       0.00000000       0.00000000
H        4.20923268       0.81006721      10.00000000        3       1.00000000       0.00000000       0.00000000       0.00000000       0.00000000       0.00000000       0.00000000
H        0.00000000       3.24026883      10.00000000        3       1.00000000       0.00000000       0.00000000       0.00000000       0.00000000       0.00000000       0.00000000
H        2.80615512       3.24026883      10.00000000        3       1.00000000       0.00000000       0.00000000       0.00000000       0.00000000       0.00000000       0.00000000
H        0.00000000       1.62013441      12.29121606        2       1.00000000       0.00000000       0.00000000       0.00000000       0.00000000       0.00000000       0.00000000
H        2.80615512       1.62013441      12.29121606        2       1.00000000       0.00000000       0.00000000       0.00000000       0.00000000       0.00000000       0.00000000
H        1.40307756       4.05033604      12.29121606        2       1.00000000       0.00000000       0.00000000       0.00000000       0.00000000       0.00000000       0.00000000
H        4.20923268       4.05033604      12.29121606        2       1.00000000       0.00000000       0.00000000       0.00000000       0.00000000       0.00000000       0.00000000
H        0.00000000       0.00000000      14.58243212        1       1.00000000       0.00000000       0.00000000       0.00000000       0.00000000       0.00000000       0.00000000
H        2.80615512       0.00000000      14.58243212        1       1.00000000       0.00000000       0.00000000       0.00000000       0.00000000       0.00000000       0.00000000
H        1.40307756       2.43020162      14.58243212        1       1.00000000       0.00000000       0.00000000       0.00000000       0.00000000       0.00000000       0.00000000
H        4.20923268       2.43020162      14.58243212        1       1.00000000       0.00000000       0.00000000       0.00000000       0.00000000       0.00000000       0.00000000
H        1.40307742       0.79347240      16.80071645        0       1.00000000       0.00000166      -0.00000059      -0.00000138      -0.00000044      -0.00000525      -0.00000277
H        5.60494692       3.24443025      16.79599925        0       1.00000000       0.00000225       0.00000028       0.00000045      -0.00000039       0.00000402       0.00000233
H        0.00000139       0.00000025       7.77172651        0       1.00000000      -0.00000000      -0.00000083       0.00000028       0.00000218      -0.00000279       0.00000265
H        4.20923284       0.81922391      16.83184693        0       1.00000000      -0.00000168       0.00000106      -0.00000118      -0.00000027      -0.00000433       0.00000227
H        2.80615665       0.00000024       7.77172749        0       1.00000000      -0.00000057      -0.00000086       0.00000093      -0.00000054      -0.00000008       0.00000067
H        1.40307919       2.43020207       7.77172701        0       1.00000000       0.00000113      -0.00000025       0.00000013      -0.00000487       0.00000143      -0.00000013
H        1.40307876       2.42881165      19.01468798        0       1.00000000      -0.00000030       0.00000202      -0.00000070       0.00000102       0.00000161       0.00000112
H        4.20923442       2.43020106       7.77172671        0       1.00000000      -0.00000051      -0.00000006       0.00000078       0.00000494       0.00000127      -0.00000029
H        2.81351858       3.24443128      16.79599912        0       1.00000000       0.00000121      -0.00000032       0.00000009      -0.00000155       0.00000550       0.00000508
21
Lattice="5.612310241546866 0.0 0.0 0.0 4.860403243099165 0.0 0.0 0.0 24.582432123328676" Properties=species:S:1:pos:R:3:tags:I:1:masses:R:1:momenta:R:3:forces:R:3 KEmax=27.14459056223422 iter=119999 volume=670.5618179858607 ns_energy=-14.087860257898761 last_walked_iter_clone=119970 energy=-14.087860257893803 stress="0.009827478496446784 7.3528907859793305e-09 7.658707918908175e-09 7.3528907859793305e-09 0.00985481026576693 -8.748193378451214e-09 7.658707918908175e-09 -8.748193378451214e-09 0.004937504230620201" pbc="T T T"
H        1.40307756       0.81006721      10.00000000        3       1.00000000       0.00000000       0.00000000       0.00000000       0.00000000       0.00000000       0.00000000
H        4.20923268       0.81006721      10.00000000        3       1.00000000       0.00000000       0.00000000       0.00000000       0.00000000       0.00000000       0.00000000
H        0.00000000       3.24026883      10.00000000        3       1.00000000       0.00000000       0.00000000       0.00000000       0.00000000       0.00000000       0.00000000
H        2.80615512       3.24026883      10.00000000        3       1.00000000       0.00000000       0.00000000       0.00000000       0.00000000       0.00000000       0.00000000
H        0.00000000       1.62013441      12.29121606        2       1.00000000       0.00000000       0.00000000       0.00000000       0.00000000       0.00000000       0.00000000
H        2.80615512       1.62013441      12.29121606        2       1.00000000       0.00000000       0.00000000       0.00000000       0.00000000       0.00000000       0.00000000
H        1.40307756       4.05033604      12.29121606        2       1.00000000       0.00000000       0.00000000       0.00000000       0.00000000       0.00000000       0.00000000
H        4.20923268       4.05033604      12.29121606        2       1.00000000       0.00000000       0.00000000       0.00000000       0.00000000       0.00000000       0.00000000
H        0.00000000       0.00000000      14.58243212        1       1.00000000       0.00000000       0.00000000       0.00000000       0.00000000       0.00000000       0.00000000
H        2.80615512       0.00000000      14.58243212        1       1.00000000       0.00000000       0.00000000       0.00000000       0.00000000       0.00000000       0.00000000
H        1.40307756       2.43020162      14.58243212        1       1.00000000       0.00000000       0.00000000       0.00000000       0.00000000       0.00000000       0.00000000
H        4.20923268       2.43020162      14.58243212        1       1.00000000       0.00000000       0.00000000       0.00000000       0.00000000       0.00000000       0.00000000
H        1.40307763       0.79347317      16.80071632        0       1.00000000       0.00000084       0.00000107       0.00000080      -0.00000044      -0.00000525      -0.00000277
H        5.60494612       3.24443075      16.79599980        0       1.00000000      -0.00000021      -0.00000090       0.00000084      -0.00000039       0.00000402       0.00000233
H       -0.00000024       0.00000040       7.77172613        0       1.00000000       0.00000011       0.00000163       0.00000217       0.00000218      -0.00000279       0.00000265
H        4.20923281       0.81922447      16.83184631        0       1.00000000      -0.00000083      -0.00000039      -0.00000120      -0.00000027      -0.00000433       0.00000227
H        2.80615496       0.00000005       7.77172750        0       1.00000000      -0.00000008       0.00000084      -0.00000027      -0.00000054      -0.00000008       0.00000067
H        1.40307711       2.43020158       7.77172704        0       1.00000000       0.00000063       0.00000212      -0.00000104      -0.00000487       0.00000143      -0.00000013
H        1.40307663       2.42881200      19.01468918        0       1.00000000      -0.00000050       0.00000028       0.00000080       0.00000102       0.00000161       0.00000112
H        4.20923206       2.43020156       7.77172725        0       1.00000000      -0.00000086      -0.00000070      -0.00000225       0.00000494       0.00000127      -0.00000029
H        2.81351761       3.24443078      16.79599940        0       1.00000000      -0.00000104      -0.00000037       0.00000071      -0.00000155       0.00000550       0.00000508
21
Lattice="5.612310241546866 0.0 0.0 0.0 4.860403243099165 0.0 0.0 0.0 24.582432123328676" Properties=species:S:1:pos:R:3:tags:I:1:masses:R:1:momenta:R:3:forces:R:3 KEmax=27.14459056223422 iter=119999 volume=670.5618179858607 ns_energy=-14.087860257897677 last_walked_iter_clone=119918 energy=-14.087860257893803 stress="0.009827478496446784 7.3528907859793305e-09 7.658707918908175e-09 7.3528907859793305e-09 0.00985481026576693 -8.748193378451214e-09 7.658707918908175e-09 -8.748193378451214e-09 0.004937504230620201" pbc="T T T"
H        1.40307756       0.81006721      10.00000000        3       1.00000000       0.00000000       0.00000000       0.00000000       0.00000000       0.00000000       0.00000000
H        4.20923268       0.81006721      10.00000000        3       1.00000000       0.00000000       0.00000000       0.00000000       0.00000000       0.00000000       0.00000000
H        0.00000000       3.24026883      10.00000000        3       1.00000000       0.00000000       0.00000000       0.00000000       0.00000000       0.00000000       0.00000000
H        2.80615512       3.24026883      10.00000000        3       1.00000000       0.00000000       0.00000000       0.00000000       0.00000000       0.00000000       0.00000000
H        0.00000000       1.62013441      12.29121606        2       1.00000000       0.00000000       0.00000000       0.00000000       0.00000000       0.00000000       0.00000000
H        2.80615512       1.62013441      12.29121606        2       1.00000000       0.00000000       0.00000000       0.00000000       0.00000000       0.00000000       0.00000000
H        1.40307756       4.05033604      12.29121606        2       1.00000000       0.00000000       0.00000000       0.00000000       0.00000000       0.00000000       0.00000000
H        4.20923268       4.05033604      12.29121606        2       1.00000000       0.00000000       0.00000000       0.00000000       0.00000000       0.00000000       0.00000000
H        0.00000000       0.00000000      14.58243212        1       1.00000000       0.00000000       0.00000000       0.00000000       0.00000000       0.00000000       0.00000000
H        2.80615512       0.00000000      14.58243212        1       1.00000000       0.00000000       0.00000000       0.00000000       0.00000000       0.00000000       0.00000000
H        1.40307756       2.43020162      14.58243212        1       1.00000000       0.00000000       0.00000000       0.00000000       0.00000000       0.00000000       0.00000000
H        4.20923268       2.43020162      14.58243212        1       1.00000000       0.00000000       0.00000000       0.00000000       0.00000000       0.00000000       0.00000000
H        1.40307807       0.79347146      16.80071678        0       1.00000000      -0.00000065       0.00000050       0.00000097      -0.00000044      -0.00000525      -0.00000277
H        5.60494765       3.24442979      16.79599957        0       1.00000000      -0.00000026       0.00000138       0.00000074      -0.00000039       0.00000402       0.00000233
H        0.00000014       4.86040292       7.77172720        0       1.00000000      -0.00000177      -0.00000066       0.00000215       0.00000218      -0.00000279       0.00000265
H        4.20923255       0.81922318      16.83184670        0       1.00000000       0.00000087       0.00000014      -0.00000102      -0.00000027      -0.00000433       0.00000227
H        2.80615452      -0.00000018       7.77172736        0       1.00000000      -0.00000080       0.00000066       0.00000053      -0.00000054      -0.00000008       0.00000067
H        1.40307702       2.43020118       7.77172785        0       1.00000000       0.00000075       0.00000069       0.00000109      -0.00000487       0.00000143      -0.00000013
H        1.40307725       2.42881229      19.01468806        0       1.00000000       0.00000054      -0.00000023      -0.00000060       0.00000102       0.00000161       0.00000112
H        4.20923236       2.43020126       7.77172710        0       1.00000000       0.00000086      -0.00000016      -0.00000192       0.00000494       0.00000127      -0.00000029
H        2.81351950       3.24443028      16.79600077        0       1.00000000      -0.00000092       0.00000070       0.00000017      -0.00000155       0.00000550       0.00000508
21
Lattice="5.612310241546866 0.0 0.0 0.0 4.860403243099165 0.0 0.0 0.0 24.582432123328676" Properties=species:S:1:pos:R:3:tags:I:1:masses:R:1:momenta:R:3:forces:R:3 KEmax=27.14459056223422 iter=119999 volume=670.5618179858607 ns_energy=-14.08786025789776 last_walked_iter_clone=119713 energy=-14.087860257893803 stress="0.009827478496446784 7.3528907859793305e-09 7.658707918908175e-09 7.3528907859793305e-09 0.00985481026576693 -8.748193378451214e-09 7.658707918908175e-09 -8.748193378451214e-09 0.004937504230620201" pbc="T T T"
H        1.40307756       0.81006721      10.00000000        3       1.00000000       0.00000000       0.00000000       0.00000000       0.00000000       0.00000000       0.00000000
H        4.20923268       0.81006721      10.00000000        3       1.00000000       0.00000000       0.00000000       0.00000000       0.00000000       0.00000000       0.00000000
H        0.00000000       3.24026883      10.00000000        3       1.00000000       0.00000000       0.00000000       0.00000000       0.00000000       0.00000000       0.00000000
H        2.80615512       3.24026883      10.00000000        3       1.00000000       0.00000000       0.00000000       0.00000000       0.00000000       0.00000000       0.00000000
H        0.00000000       1.62013441      12.29121606        2       1.00000000       0.00000000       0.00000000       0.00000000       0.00000000       0.00000000       0.00000000
H        2.80615512       1.62013441      12.29121606        2       1.00000000       0.00000000       0.00000000       0.00000000       0.00000000       0.00000000       0.00000000
H        1.40307756       4.05033604      12.29121606        2       1.00000000       0.00000000       0.00000000       0.00000000       0.00000000       0.00000000       0.00000000
H        4.20923268       4.05033604      12.29121606        2       1.00000000       0.00000000       0.00000000       0.00000000       0.00000000       0.00000000       0.00000000
H        0.00000000       0.00000000      14.58243212        1       1.00000000       0.00000000       0.00000000       0.00000000       0.00000000       0.00000000       0.00000000
H        2.80615512       0.00000000      14.58243212        1       1.00000000       0.00000000       0.00000000       0.00000000       0.00000000       0.00000000       0.00000000
H        1.40307756       2.43020162      14.58243212        1       1.00000000       0.00000000       0.00000000       0.00000000       0.00000000       0.00000000       0.00000000
H        4.20923268       2.43020162      14.58243212        1       1.00000000       0.00000000       0.00000000       0.00000000       0.00000000       0.00000000       0.00000000
H        1.40307751       0.79347149      16.80071714        0       1.00000000       0.00000007       0.00000007       0.00000002      -0.00000044      -0.00000525      -0.00000277
H        5.60494773       3.24443075      16.79599961        0       1.00000000      -0.00000041      -0.00000140       0.00000086      -0.00000039       0.00000402       0.00000233
H       -0.00000000       0.00000008       7.77172597        0       1.00000000       0.00000007       0.00000121       0.00000010       0.00000218      -0.00000279       0.00000265
H        4.20923239       0.81922369      16.83184695        0       1.00000000       0.00000009      -0.00000269       0.00000131      -0.00000027      -0.00000433       0.00000227
H        2.80615416       4.86040355       7.77172735        0       1.00000000       0.00000029      -0.00000176      -0.00000025      -0.00000054      -0.00000008       0.00000067
H        1.40307694       2.43020194       7.77172733        0       1.00000000       0.00000011       0.00000111       0.00000049      -0.00000487       0.00000143      -0.00000013