21
Lattice="5.612310241546866 0.0 0.0 0.0 4.860403243099165 0.0 0.0 0.0 24.582432123328676" Properties=species:S:1:pos:R:3:tags:I:1:masses:R:1:momenta:R:3:forces:R:3 KEmax=27.14459056223422 iter=59376 volume=670.5618179858607 ns_energy=-14.087855140666917 last_walked_iter_clone=59332 energy=-14.087856829851551 stress="0.009821965244436683 -2.4096797844248327e-06 -2.774268110745765e-06 -2.4096797844248327e-06 0.009857062055395136 -6.657811217949752e-06 -2.774268110745765e-06 -6.657811217949752e-06 0.0049318759423858756" pbc="T T T"
H        1.40307756       0.81006721      10.00000000        3       1.00000000       0.00000000       0.00000000       0.00000000       0.00000000       0.00000000       0.00000000
H        4.20923268       0.81006721      10.00000000        3       1.00000000       0.00000000       0.00000000       0.00000000       0.00000000       0.00000000       0.00000000
H        0.00000000       3.24026883      10.00000000        3       1.00000000       0.00000000       0.00000000       0.00000000       0.00000000       0.00000000       0.00000000
H        2.80615512       3.24026883      10.00000000        3       1.00000000       0.00000000       0.00000000       0.00000000       0.00000000       0.00000000       0.00000000
H        0.00000000       1.62013441      12.29121606        2       1.00000000       0.00000000       0.00000000       0.00000000       0.00000000       0.00000000       0.00000000
H        2.80615512       1.62013441      12.29121606        2       1.00000000       0.00000000       0.00000000       0.00000000       0.00000000       0.00000000       0.00000000
H        1.40307756       4.05033604      12.29121606        2       1.00000000       0.00000000       0.00000000       0.00000000       0.00000000       0.00000000       0.00000000
H        4.20923268       4.05033604      12.29121606        2       1.00000000       0.00000000       0.00000000       0.00000000       0.00000000       0.00000000       0.00000000
H        0.00000000       0.00000000      14.58243212        1       1.00000000       0.00000000       0.00000000       0.00000000       0.00000000       0.00000000       0.00000000
H        2.80615512       0.00000000      14.58243212        1       1.00000000       0.00000000       0.00000000       0.00000000       0.00000000       0.00000000       0.00000000
H        1.40307756       2.43020162      14.58243212        1       1.00000000       0.00000000       0.00000000       0.00000000       0.00000000       0.00000000       0.00000000
H        4.20923268       2.43020162      14.58243212        1       1.00000000       0.00000000       0.00000000       0.00000000       0.00000000       0.00000000       0.00000000
H        1.40322714       0.79353896      16.80087756        0       1.00000000       0.00052609      -0.00008692      -0.00037654       0.00057352       0.00126904       0.00086022
H        5.60495787       3.24495811      16.79612496        0       1.00000000      -0.00058738       0.00042569      -0.00035513       0.00035350      -0.00065401       0.00076329
H        5.61213727       4.85994769       7.77207300        0       1.00000000      -0.00008038       0.00002044      -0.00003321      -0.00042499       0.00091647       0.00098672
H        4.20933868       0.81918337      16.83155649        0       1.00000000       0.00040781      -0.00014628       0.00036046       0.00051692       0.00203123       0.00009395
H        2.80636830       4.86049211       7.77204514        0       1.00000000       0.00051590       0.00073303      -0.00015222       0.00057799      -0.00053544      -0.00057910
H        1.40328895       2.43038259       7.77183488        0       1.00000000       0.00022029       0.00030900      -0.00090158       0.00030881      -0.00047290      -0.00076348
H        1.40237034       2.42997038      19.01465545        0       1.00000000      -0.00070572      -0.00105663       0.00015188      -0.00019327      -0.00016153      -0.00013426
H        4.20964356       2.43008486       7.77142444        0       1.00000000       0.00006556      -0.00004814       0.00003145      -0.00152392      -0.00139928       0.00019631
H        2.81370891       3.24420069      16.79628300        0       1.00000000      -0.00015417       0.00041706      -0.00049581      -0.00129785      -0.00184686       0.00014078
21
Lattice="5.612310241546866 0.0 0.0 0.0 4.860403243099165 0.0 0.0 0.0 24.582432123328676" Properties=species:S:1:pos:R:3:tags:I:1:masses:R:1:momenta:R:3:forces:R:3 KEmax=27.14459056223422 iter=59376 volume=670.5618179858607 ns_energy=-14.087855311244793 last_walked_iter_clone=59329 energy=-14.087856829851551 stress="0.009821965244436683 -2.4096797844248327e-06 -2.774268110745765e-06 -2.4096797844248327e-06 0.009857062055395136 -6.657811217949752e-06 -2.774268110745765e-06 -6.657811217949752e-06 0.0049318759423858756" pbc="T T T"
H        1.40307756       0.81006721      10.00000000        3       1.00000000       0.00000000       0.00000000       0.00000000       0.00000000       0.00000000       0.00000000
H        4.20923268       0.81006721      10.00000000        3       1.00000000       0.00000000       0.00000000       0.00000000       0.00000000       0.00000000       0.00000000
H        0.00000000       3.24026883      10.00000000        3       1.00000000       0.00000000       0.00000000       0.00000000       0.00000000       0.00000000       0.00000000
H        2.80615512       3.24026883      10.00000000        3       1.00000000       0.00000000       0.00000000       0.00000000       0.00000000       0.00000000       0.00000000
H        0.00000000       1.62013441      12.29121606        2       1.00000000       0.00000000       0.00000000       0.00000000       0.00000000       0.00000000       0.00000000
H        2.80615512       1.62013441      12.29121606        2       1.00000000       0.00000000       0.00000000       0.00000000       0.00000000       0.00000000       0.00000000
H        1.40307756       4.05033604      12.29121606        2       1.00000000       0.00000000       0.00000000       0.00000000       0.00000000       0.00000000       0.00000000
H        4.20923268       4.05033604      12.29121606        2       1.00000000       0.00000000       0.00000000       0.00000000       0.00000000       0.00000000       0.00000000
H        0.00000000       0.00000000      14.58243212        1       1.00000000       0.00000000       0.00000000       0.00000000       0.00000000       0.00000000       0.00000000
H        2.80615512       0.00000000      14.58243212        1       1.00000000       0.00000000       0.00000000       0.00000000       0.00000000       0.00000000       0.00000000
H        1.40307756       2.43020162      14.58243212        1       1.00000000       0.00000000       0.00000000       0.00000000       0.00000000       0.00000000       0.00000000
H        4.20923268       2.43020162      14.58243212        1       1.00000000       0.00000000       0.00000000       0.00000000       0.00000000       0.00000000       0.00000000
H        1.40360670       0.79390897      16.80094761        0       1.00000000      -0.00025269       0.00058787      -0.00028532       0.00057352       0.00126904       0.00086022
H        5.60552279       3.24467358      16.79604805        0       1.00000000       0.00051282      -0.00082539      -0.00010303       0.00035350      -0.00065401       0.00076329
H        0.00010373       4.86042235       7.77205778        0       1.00000000      -0.00013364       0.00049194      -0.00045187      -0.00042499       0.00091647       0.00098672
H        4.20962365       0.81953115      16.83182271        0       1.00000000      -0.00012318       0.00001844       0.00022092       0.00051692       0.00203123       0.00009395
H        2.80625660       4.86098313       7.77125141        0       1.00000000      -0.00005644       0.00073048      -0.00058401       0.00057799      -0.00053544      -0.00057910
H        1.40331234       2.43035500       7.77193768        0       1.00000000      -0.00132439      -0.00005451       0.00007068       0.00030881      -0.00047290      -0.00076348
H        1.40304883       2.42853035      19.01488006        0       1.00000000       0.00024384       0.00014694       0.00017605      -0.00019327      -0.00016153      -0.00013426
H        4.20930536       2.43008298       7.77166718        0       1.00000000      -0.00046091       0.00017029      -0.00011291      -0.00152392      -0.00139928       0.00019631
H        2.81380698       3.24452583      16.79594613        0       1.00000000      -0.00025599       0.00042408       0.00073170      -0.00129785      -0.00184686       0.00014078
21
Lattice="5.612310241546866 0.0 0.0 0.0 4.860403243099165 0.0 0.0 0.0 24.582432123328676" Properties=species:S:1:pos:R:3:tags:I:1:masses:R:1:momenta:R:3:forces:R:3 KEmax=27.14459056223422 iter=59376 volume=670.5618179858607 ns_energy=-14.087854999366694 last_walked_iter_clone=59321 energy=-14.087856829851551 stress="0.009821965244436683 -2.4096797844248327e-06 -2.774268110745765e-06 -2.4096797844248327e-06 0.009857062055395136 -6.657811217949752e-06 -2.774268110745765e-06 -6.657811217949752e-06 0.0049318759423858756" pbc="T T T"
H        1.40307756       0.81006721      10.00000000        3       1.00000000       0.00000000       0.00000000       0.00000000       0.00000000       0.00000000       0.00000000
H        4.20923268       0.81006721      10.00000000        3       1.00000000       0.00000000       0.00000000       0.00000000       0.00000000       0.00000000       0.00000000
H        0.00000000       3.24026883      10.00000000        3       1.00000000       0.00000000       0.00000000       0.00000000       0.00000000       0.00000000       0.00000000
H        2.80615512       3.24026883      10.00000000        3       1.00000000       0.00000000       0.00000000       0.00000000       0.00000000       0.00000000       0.00000000
H        0.00000000       1.62013441      12.29121606        2       1.00000000       0.00000000       0.00000000       0.00000000       0.00000000       0.00000000       0.00000000
H        2.80615512       1.62013441      12.29121606        2       1.00000000       0.00000000       0.00000000       0.00000000       0.00000000       0.00000000       0.00000000
H        1.40307756       4.05033604      12.29121606        2       1.00000000       0.00000000       0.00000000       0.00000000       0.00000000       0.00000000       0.00000000
H        4.20923268       4.05033604      12.29121606        2       1.00000000       0.00000000       0.00000000       0.00000000       0.00000000       0.00000000       0.00000000
H        0.00000000       0.00000000      14.58243212        1       1.00000000       0.00000000       0.00000000       0.00000000       0.00000000       0.00000000       0.00000000
H        2.80615512       0.00000000      14.58243212        1       1.00000000       0.00000000       0.00000000       0.00000000       0.00000000       0.00000000       0.00000000
H        1.40307756       2.43020162      14.58243212        1       1.00000000       0.00000000       0.00000000       0.00000000       0.00000000       0.00000000       0.00000000
H        4.20923268       2.43020162      14.58243212        1       1.00000000       0.00000000       0.00000000       0.00000000       0.00000000       0.00000000       0.00000000
H        1.40287583       0.79371797      16.80095276        0       1.00000000       0.00077581       0.00057892       0.00037035       0.00057352       0.00126904       0.00086022
H        5.60510158       3.24444477      16.79609145        0       1.00000000      -0.00021610       0.00023559       0.00102998       0.00035350      -0.00065401       0.00076329
H        0.00019014       4.86021559       7.77152493        0       1.00000000      -0.00016602      -0.00007458      -0.00028437      -0.00042499       0.00091647       0.00098672
H        4.20880213       0.81980643      16.83204248        0       1.00000000      -0.00053296       0.00039129      -0.00030567       0.00051692       0.00203123       0.00009395
H        2.80662797       4.86025482       7.77119945        0       1.00000000      -0.00065984      -0.00023898       0.00016055       0.00057799      -0.00053544      -0.00057910
H        1.40328844       2.42969625       7.77160359        0       1.00000000      -0.00031718       0.00021590      -0.00061395       0.00030881      -0.00047290      -0.00076348
H        1.40311847       2.42929526      19.01485545        0       1.00000000      -0.00029645      -0.00030759       0.00029965      -0.00019327      -0.00016153      -0.00013426
H        4.20938263       2.42984371       7.77141080        0       1.00000000       0.00091148      -0.00013769       0.00015616      -0.00152392      -0.00139928       0.00019631
H        2.81383078       3.24446061      16.79643278        0       1.00000000       0.00042210       0.00031822       0.00021656      -0.00129785      -0.00184686       0.00014078
21
Lattice="5.612310241546866 0.0 0.0 0.0 4.860403243099165 0.0 0.0 0.0 24.582432123328676" Properties=species:S:1:pos:R:3:tags:I:1:masses:R:1:momenta:R:3:forces:R:3 KEmax=27.14459056223422 iter=59376 volume=670.5618179858607 ns_energy=-14.087855163184289 last_walked_iter_clone=59347 energy=-14.087856829851551 stress="0.009821965244436683 -2.4096797844248327e-06 -2.774268110745765e-06 -2.4096797844248327e-06 0.009857062055395136 -6.657811217949752e-06 -2.774268110745765e-06 -6.657811217949752e-06 0.0049318759423858756" pbc="T T T"
H        1.40307756       0.81006721      10.00000000        3       1.00000000       0.00000000       0.00000000       0.00000000       0.00000000       0.00000000       0.00000000
H        4.20923268       0.81006721      10.00000000        3       1.00000000       0.00000000       0.00000000       0.00000000       0.00000000       0.00000000       0.00000000
H        0.00000000       3.24026883      10.00000000        3       1.00000000       0.00000000       0.00000000       0.00000000       0.00000000       0.00000000       0.00000000
H        2.80615512       3.24026883      10.00000000        3       1.00000000       0.00000000       0.00000000       0.00000000       0.00000000       0.00000000       0.00000000
H        0.00000000       1.62013441      12.29121606        2       1.00000000       0.00000000       0.00000000       0.00000000       0.00000000       0.00000000       0.00000000
H        2.80615512       1.62013441      12.29121606        2       1.00000000       0.00000000       0.00000000       0.00000000       0.00000000       0.00000000       0.00000000
H        1.40307756       4.05033604      12.29121606        2       1.00000000       0.00000000       0.00000000       0.00000000       0.00000000       0.00000000       0.00000000
H        4.20923268       4.05033604      12.29121606        2       1.00000000       0.00000000       0.00000000       0.00000000       0.00000000       0.00000000       0.00000000
H        0.00000000       0.00000000      14.58243212        1       1.00000000       0.00000000       0.00000000       0.00000000       0.00000000       0.00000000       0.00000000
H        2.80615512       0.00000000      14.58243212        1       1.00000000       0.00000000       0.00000000       0.00000000       0.00000000       0.00000000       0.00000000
H        1.40307756       2.43020162      14.58243212        1       1.00000000       0.00000000       0.00000000       0.00000000       0.00000000       0.00000000       0.00000000
H        4.20923268       2.43020162      14.58243212        1       1.00000000       0.00000000       0.00000000       0.00000000       0.00000000       0.00000000       0.00000000
H        1.40270555       0.79369345      16.80073208        0       1.00000000      -0.00053317       0.00005328      -0.00047471       0.00057352       0.00126904       0.00086022
H        5.60492838       3.24405781      16.79636465        0       1.00000000       0.00073075      -0.00025058       0.00007145       0.00035350      -0.00065401       0.00076329
H        5.61215590       0.00055417       7.77127683        0       1.00000000      -0.00009496      -0.00049932      -0.00010325      -0.00042499       0.00091647       0.00098672
H        4.20873494       0.81905493      16.83177817        0       1.00000000       0.00000591       0.00009772      -0.00003391       0.00051692       0.00203123       0.00009395
H        2.80594158       0.00014347       7.77172118        0       1.00000000       0.00026150      -0.00001482       0.00017033       0.00057799      -0.00053544      -0.00057910
H        1.40268209       2.43053773       7.77175519        0       1.00000000       0.00006821      -0.00099108      -0.00019654       0.00030881      -0.00047290      -0.00076348
H        1.40315723       2.42871011      19.01532680        0       1.00000000       0.00065666      -0.00104699      -0.00047978      -0.00019327      -0.00016153      -0.00013426
H        4.20929250       2.43067324       7.77173116        0       1.00000000       0.00038036       0.00010346       0.00074983      -0.00152392      -0.00139928       0.00019631
H        2.81290978       3.24456184      16.79638985        0       1.00000000      -0.00059855       0.00025262      -0.00031991      -0.00129785      -0.00184686       0.00014078
21
Lattice="5.612310241546866 0.0 0.0 0.0 4.860403243099165 0.0 0.0 0.0 24.582432123328676" Properties=species:S:1:pos:R:3:tags:I:1:masses:R:1:momenta:R:3:forces:R:3 KEmax=27.14459056223422 iter=59376 volume=670.5618179858607 ns_energy=-14.087855182298746 last_walked_iter_clone=59254 energy=-14.087856829851551 stress="0.009821965244436683 -2.4096797844248327e-06 -2.774268110745765e-06 -2.4096797844248327e-06 0.009857062055395136 -6.657811217949752e-06 -2.774268110745765e-06 -6.657811217949752e-06 0.0049318759423858756" pbc="T T T"
H        1.40307756       0.81006721      10.00000000        3       1.00000000       0.00000000       0.00000000       0.00000000       0.00000000       0.00000000       0.00000000
H        4.20923268       0.81006721      10.00000000        3       1.00000000       0.00000000       0.00000000       0.00000000       0.00000000       0.00000000       0.00000000
H        0.00000000       3.24026883      10.00000000        3       1.00000000       0.00000000       0.00000000       0.00000000       0.00000000       0.00000000       0.00000000
H        2.80615512       3.24026883      10.00000000        3       1.00000000       0.00000000       0.00000000       0.00000000       0.00000000       0.00000000       0.00000000
H        0.00000000       1.62013441      12.29121606        2       1.00000000       0.00000000       0.00000000       0.00000000       0.00000000       0.00000000       0.00000000
H        2.80615512       1.62013441      12.29121606        2       1.00000000       0.00000000       0.00000000       0.00000000       0.00000000       0.00000000       0.00000000
H        1.40307756       4.05033604      12.29121606        2       1.00000000       0.00000000       0.00000000       0.00000000       0.00000000       0.00000000       0.00000000
H        4.20923268       4.05033604      12.29121606        2       1.00000000       0.00000000       0.00000000       0.00000000       0.00000000       0.00000000       0.00000000
H        0.00000000       0.00000000      14.58243212        1       1.00000000       0.00000000       0.00000000       0.00000000       0.00000000       0.00000000       0.00000000
H        2.80615512       0.00000000      14.58243212        1       1.00000000       0.00000000       0.00000000       0.00000000       0.00000000       0.00000000       0.00000000
H        1.40307756       2.43020162      14.58243212        1       1.00000000       0.00000000       0.00000000       0.00000000       0.00000000       0.00000000       0.00000000
H        4.20923268       2.43020162      14.58243212        1       1.00000000       0.00000000       0.00000000       0.00000000       0.00000000       0.00000000       0.00000000
H        1.40283098       0.79296595      16.80056059        0       1.00000000       0.00034368      -0.00024524       0.00060870       0.00057352       0.00126904       0.00086022
H        5.60477338       3.24441083      16.79572851        0       1.00000000      -0.00039258       0.00058858       0.00078633       0.00035350      -0.00065401       0.00076329
H        5.61242446       4.86090570       7.77191912        0       1.00000000       0.00129717      -0.00041520       0.00067580      -0.00042499       0.00091647       0.00098672
H        4.20887135       0.81885863      16.83226489        0       1.00000000       0.00041596       0.00006766       0.00021674       0.00051692       0.00203123       0.00009395
H        2.80594173       0.00009598       7.77184405        0       1.00000000      -0.00014380      -0.00004496       0.00000664       0.00057799      -0.00053544      -0.00057910
H        1.40315601       2.43082484       7.77153812        0       1.00000000       0.00001878       0.00004837       0.00005252       0.00030881      -0.00047290      -0.00076348
H        1.40283432       2.42792409      19.01457433        0       1.00000000       0.00040477      -0.00017832      -0.00095066      -0.00019327      -0.00016153      -0.00013426
H        4.20905332       2.43048924       7.77169884        0       1.00000000      -0.00023964       0.00045819      -0.00035362      -0.00152392      -0.00139928       0.00019631
H        2.81324348       3.24366748      16.79584307        0       1.00000000      -0.00006359       0.00032368       0.00046095      -0.00129785      -0.00184686       0.00014078
21
Lattice="5.612310241546866 0.0 0.0 0.0 4.860403243099165 0.0 0.0 0.0 24.582432123328676" Properties=species:S:1:pos:R:3:tags:I:1:masses:R:1:momenta:R:3:forces:R:3 KEmax=27.14459056223422 iter=59376 volume=670.5618179858607 ns_energy=-14.087855019069968 last_walked_iter_clone=59189 energy=-14.087856829851551 stress="0.009821965244436683 -2.4096797844248327e-06 -2.774268110745765e-06 -2.4096797844248327e-06 0.009857062055395136 -6.657811217949752e-06 -2.774268110745765e-06 -6.657811217949752e-06 0.0049318759423858756" pbc="T T T"
H        1.40307756       0.81006721      10.00000000        3       1.00000000       0.00000000       0.00000000       0.00000000       0.00000000       0.00000000       0.00000000
H        4.20923268       0.81006721      10.00000000        3       1.00000000       0.00000000       0.00000000       0.00000000       0.00000000       0.00000000       0.00000000
H        0.00000000       3.24026883      10.00000000        3       1.00000000       0.00000000       0.00000000       0.00000000       0.00000000       0.00000000       0.00000000
H        2.80615512       3.24026883      10.00000000        3       1.00000000       0.00000000       0.00000000       0.00000000       0.00000000       0.00000000       0.00000000
H        0.00000000       1.62013441      12.29121606        2       1.00000000       0.00000000       0.00000000       0.00000000       0.00000000       0.00000000       0.00000000
H        2.80615512       1.62013441      12.29121606        2       1.00000000       0.00000000       0.00000000       0.00000000       0.00000000       0.00000000       0.00000000
H        1.40307756       4.05033604      12.29121606        2       1.00000000       0.00000000       0.00000000       0.00000000       0.00000000       0.00000000       0.00000000
H        4.20923268       4.05033604      12.29121606        2       1.00000000       0.00000000       0.00000000       0.00000000       0.00000000       0.00000000       0.00000000
H        0.00000000       0.00000000      14.58243212        1       1.00000000       0.00000000       0.00000000       0.00000000       0.00000000       0.00000000       0.00000000
H        2.80615512       0.00000000      14.58243212        1       1.00000000       0.00000000       0.00000000       0.00000000       0.00000000       0.00000000       0.00000000
H        1.40307756       2.43020162      14.58243212        1       1.00000000       0.00000000       0.00000000       0.00000000       0.00000000       0.00000000       0.00000000
H        4.20923268       2.43020162      14.58243212        1       1.00000000       0.00000000       0.00000000       0.00000000       0.00000000       0.00000000       0.00000000
H        1.40320785       0.79342189      16.80072749        0       1.00000000      -0.00028620      -0.00026532       0.00092692       0.00057352       0.00126904       0.00086022
H        5.60474423       3.24448588      16.79594165        0       1.00000000      -0.00062859       0.00048903      -0.00012228       0.00035350      -0.00065401       0.00076329
H        0.00009526       4.85998182       7.77128043        0       1.00000000      -0.00000406      -0.00091026      -0.00031324      -0.00042499       0.00091647       0.00098672
H        4.20919651       0.81946736      16.83172894        0       1.00000000      -0.00075501       0.00024964      -0.00001842       0.00051692       0.00203123       0.00009395
H        2.80631091       4.86008752       7.77144004        0       1.00000000      -0.00012080       0.00047240      -0.00035010       0.00057799      -0.00053544      -0.00057910
H        1.40293877       2.42994394       7.77159983        0       1.00000000      -0.00035925       0.00042592      -0.00095492       0.00030881      -0.00047290      -0.00076348
H        1.40361948       2.42959480      19.01479394        0       1.00000000       0.00033334       0.00073327      -0.00027933      -0.00019327      -0.00016153      -0.00013426
H        4.20893721       2.42997176       7.77181352        0       1.00000000      -0.00079141       0.00094841      -0.00001197      -0.00152392      -0.00139928       0.00019631
H        2.81364012       3.24433018      16.79572172        0       1.00000000      -0.00050161      -0.00060967      -0.00008515      -0.00129785      -0.00184686       0.00014078
21
Lattice="5.612310241546866 0.0 0.0 0.0 4.860403243099165 0.0 0.0 0.0 24.582432123328676" Properties=species:S:1:pos:R:3:tags:I:1:masses:R:1:momenta:R:3:forces:R:3 KEmax=27.14459056223422 iter=59376 volume=670.5618179858607 ns_energy=-14.087855096349257 last_walked_iter_clone=59188 energy=-14.087856829851551 stress="0.009821965244436683 -2.4096797844248327e-06 -2.774268110745765e-06 -2.4096797844248327e-06 0.009857062055395136 -6.657811217949752e-06 -2.774268110745765e-06 -6.657811217949752e-06 0.0049318759423858756" pbc="T T T"
H        1.40307756       0.81006721      10.00000000        3       1.00000000       0.00000000       0.00000000       0.00000000       0.00000000       0.00000000       0.00000000
H        4.20923268       0.81006721      10.00000000        3       1.00000000       0.00000000       0.00000000       0.00000000       0.00000000       0.00000000       0.00000000
H        0.00000000       3.24026883      10.00000000        3       1.00000000       0.00000000       0.00000000       0.00000000       0.00000000       0.00000000       0.00000000
H        2.80615512       3.24026883      10.00000000        3       1.00000000       0.00000000       0.00000000       0.00000000       0.00000000       0.00000000       0.00000000
H        0.00000000       1.62013441      12.29121606        2       1.00000000       0.00000000       0.00000000       0.00000000       0.00000000       0.00000000       0.00000000
H        2.80615512       1.62013441      12.29121606        2       1.00000000       0.00000000       0.00000000       0.00000000       0.00000000       0.00000000       0.00000000
H        1.40307756       4.05033604      12.29121606        2       1.00000000       0.00000000       0.00000000       0.00000000       0.00000000       0.00000000       0.00000000
H        4.20923268       4.05033604      12.29121606        2       1.00000000       0.00000000       0.00000000       0.00000000       0.00000000       0.00000000       0.00000000
H        0.00000000       0.00000000      14.58243212        1       1.00000000       0.00000000       0.00000000       0.00000000       0.00000000       0.00000000       0.00000000
H        2.80615512       0.00000000      14.58243212        1       1.00000000       0.00000000       0.00000000       0.00000000       0.00000000       0.00000000       0.00000000
H        1.40307756       2.43020162      14.58243212        1       1.00000000       0.00000000       0.00000000       0.00000000       0.00000000       0.00000000       0.00000000
H        4.20923268       2.43020162      14.58243212        1       1.00000000       0.00000000       0.00000000       0.00000000       0.00000000       0.00000000       0.00000000
H        1.40291884       0.79311310      16.80039075        0       1.00000000       0.00009465       0.00031703       0.00062531       0.00057352       0.00126904       0.00086022
H        5.60501919       3.24408974      16.79595983        0       1.00000000       0.00061447      -0.00019902       0.00002099       0.00035350      -0.00065401       0.00076329
H        5.61243988      -0.00004834       7.77184561        0       1.00000000       0.00027812      -0.00042090      -0.00041556      -0.00042499       0.00091647       0.00098672
H        4.20950372       0.81920934      16.83215746        0       1.00000000      -0.00047352       0.00023370       0.00009935       0.00051692       0.00203123       0.00009395
H        2.80573085      -0.00028019       7.77136065        0       1.00000000       0.00011828      -0.00031677       0.00036251       0.00057799      -0.00053544      -0.00057910
H        1.40322560       2.42996167       7.77219990        0       1.00000000       0.00064225      -0.00056884      -0.00065620       0.00030881      -0.00047290      -0.00076348