21
Lattice="5.612310241546866 0.0 0.0 0.0 4.860403243099165 0.0 0.0 0.0 24.582432123328676" Properties=species:S:1:pos:R:3:tags:I:1:masses:R:1:momenta:R:3 KEmax=27.14459056223422 iter=99 volume=670.5618179858607 ns_energy=1938.42242245989 last_walked_iter_clone=76 ns_P=0.0 config_n_global=99 ns_KE=26.032339098020742 pbc="T T T"
H        1.40307756       0.81006721      10.00000000        3       1.00000000       0.00000000       0.00000000       0.00000000
H        4.20923268       0.81006721      10.00000000        3       1.00000000       0.00000000       0.00000000       0.00000000
H        0.00000000       3.24026883      10.00000000        3       1.00000000       0.00000000       0.00000000       0.00000000
H        2.80615512       3.24026883      10.00000000        3       1.00000000       0.00000000       0.00000000       0.00000000
H        0.00000000       1.62013441      12.29121606        2       1.00000000       0.00000000       0.00000000       0.00000000
H        2.80615512       1.62013441      12.29121606        2       1.00000000       0.00000000       0.00000000       0.00000000
H        1.40307756       4.05033604      12.29121606        2       1.00000000       0.00000000       0.00000000       0.00000000
H        4.20923268       4.05033604      12.29121606        2       1.00000000       0.00000000       0.00000000       0.00000000
H        0.00000000       0.00000000      14.58243212        1       1.00000000       0.00000000       0.00000000       0.00000000
H        2.80615512       0.00000000      14.58243212        1       1.00000000       0.00000000       0.00000000       0.00000000
H        1.40307756       2.43020162      14.58243212        1       1.00000000       0.00000000       0.00000000       0.00000000
H        4.20923268       2.43020162      14.58243212        1       1.00000000       0.00000000       0.00000000       0.00000000
H        5.54189234       3.77503900       6.61672220        0       1.00000000      -0.84246553      -0.51340802      -0.46040939
H        1.60527339       4.25909597      17.79617476        0       1.00000000       1.27002944      -1.24579047      -0.91558995
H        5.38637641       4.73198854      20.73965037        0       1.00000000      -1.09953956       1.28551027      -0.51277826
H        2.20422944       0.79568888       4.98030227        0       1.00000000      -3.26149447      -0.24382266      -0.06699915
H        2.52062115       3.73664999       5.33759254        0       1.00000000      -0.43636795      -0.99883872       0.22247442
H        1.85483989       3.09428181       3.52993393        0       1.00000000       2.87976030       0.26614679       0.97828357
H        1.14810355       0.18130013       4.81628791        0       1.00000000      -1.99718434       1.51224788       1.24283011
H        0.72549887       2.12339133       1.67348728        0       1.00000000      -0.65864874      -1.14373731      -3.10455413
H        3.00209522       4.22835487      23.93419795        0       1.00000000      -1.26821919      -1.16555681       0.56963250
21
Lattice="5.612310241546866 0.0 0.0 0.0 4.860403243099165 0.0 0.0 0.0 24.582432123328676" Properties=species:S:1:pos:R:3:tags:I:1:masses:R:1:momenta:R:3 KEmax=27.14459056223422 iter=199 volume=670.5618179858607 ns_energy=155.11150808922974 last_walked_iter_clone=198 ns_P=0.0 config_n_global=199 ns_KE=24.81838691447952 pbc="T T T"
H        1.40307756       0.81006721      10.00000000        3       1.00000000       0.00000000       0.00000000       0.00000000
H        4.20923268       0.81006721      10.00000000        3       1.00000000       0.00000000       0.00000000       0.00000000
H        0.00000000       3.24026883      10.00000000        3       1.00000000       0.00000000       0.00000000       0.00000000
H        2.80615512       3.24026883      10.00000000        3       1.00000000       0.00000000       0.00000000       0.00000000
H        0.00000000       1.62013441      12.29121606        2       1.00000000       0.00000000       0.00000000       0.00000000
H        2.80615512       1.62013441      12.29121606        2       1.00000000       0.00000000       0.00000000       0.00000000
H        1.40307756       4.05033604      12.29121606        2       1.00000000       0.00000000       0.00000000       0.00000000
H        4.20923268       4.05033604      12.29121606        2       1.00000000       0.00000000       0.00000000       0.00000000
H        0.00000000       0.00000000      14.58243212        1       1.00000000       0.00000000       0.00000000       0.00000000
H        2.80615512       0.00000000      14.58243212        1       1.00000000       0.00000000       0.00000000       0.00000000
H        1.40307756       2.43020162      14.58243212        1       1.00000000       0.00000000       0.00000000       0.00000000
H        4.20923268       2.43020162      14.58243212        1       1.00000000       0.00000000       0.00000000       0.00000000
H        4.57128856       1.47355870      17.78027280        0       1.00000000      -1.56646119      -1.15707177       1.38523361
H        4.78919445       1.00237447      22.91737358        0       1.00000000      -2.38397811      -0.10020330      -1.43954491
H        0.21954328       1.55386570      16.79027102        0       1.00000000      -2.25037023       0.35662392      -1.26915998
H        4.06685873       3.88521892      20.67079901        0       1.00000000       1.95439849       1.14975668       0.46279212
H        5.26631799       3.03721181      17.38131997        0       1.00000000      -1.13203458      -1.65824206      -1.09099445
H        3.37847734       4.53152597       1.69572584        0       1.00000000       0.20956865      -1.33608710      -1.84935383
H        1.98865829       1.68273133      22.04528279        0       1.00000000      -0.45471978      -1.03319380      -0.50515227
H        1.30487655       3.66994422       2.72744223        0       1.00000000       1.13069743      -0.09653388      -2.25490853
H        3.78452958       1.82828415       1.56996629        0       1.00000000      -1.56632390      -0.31135242       1.75466445
21
Lattice="5.612310241546866 0.0 0.0 0.0 4.860403243099165 0.0 0.0 0.0 24.582432123328676" Properties=species:S:1:pos:R:3:tags:I:1:masses:R:1:momenta:R:3 KEmax=27.14459056223422 iter=299 volume=670.5618179858607 ns_energy=36.265047035013204 last_walked_iter_clone=215 ns_P=0.0 config_n_global=299 ns_KE=24.07182103502292 pbc="T T T"
H        1.40307756       0.81006721      10.00000000        3       1.00000000       0.00000000       0.00000000       0.00000000
H        4.20923268       0.81006721      10.00000000        3       1.00000000       0.00000000       0.00000000       0.00000000
H        0.00000000       3.24026883      10.00000000        3       1.00000000       0.00000000       0.00000000       0.00000000
H        2.80615512       3.24026883      10.00000000        3       1.00000000       0.00000000       0.00000000       0.00000000
H        0.00000000       1.62013441      12.29121606        2       1.00000000       0.00000000       0.00000000       0.00000000
H        2.80615512       1.62013441      12.29121606        2       1.00000000       0.00000000       0.00000000       0.00000000
H        1.40307756       4.05033604      12.29121606        2       1.00000000       0.00000000       0.00000000       0.00000000
H        4.20923268       4.05033604      12.29121606        2       1.00000000       0.00000000       0.00000000       0.00000000
H        0.00000000       0.00000000      14.58243212        1       1.00000000       0.00000000       0.00000000       0.00000000
H        2.80615512       0.00000000      14.58243212        1       1.00000000       0.00000000       0.00000000       0.00000000
H        1.40307756       2.43020162      14.58243212        1       1.00000000       0.00000000       0.00000000       0.00000000
H        4.20923268       2.43020162      14.58243212        1       1.00000000       0.00000000       0.00000000       0.00000000
H        2.41198343       4.23138880       2.47679317        0       1.00000000       1.48611446      -0.20536893      -0.63184618
H        5.39870132       0.59775596      19.75659850        0       1.00000000      -1.48685418      -0.77852598       0.76774791
H        5.54531229       1.55469091       2.89176348        0       1.00000000       1.64272884       0.85233748       0.89111308
H        3.03455675       3.49213215      20.91244043        0       1.00000000      -1.27030748      -0.59062877       0.68780181
H        0.25445674       2.46787916      18.43531234        0       1.00000000       0.79488890      -1.16146378       0.53773813
H        2.38103139       4.71682785       4.33328856        0       1.00000000       1.43753153      -0.47464307       1.91855567
H        0.87844134       3.36664565       5.87767105        0       1.00000000       1.36824628       1.52481158       1.74409574
H        3.48156137       1.06629086       1.91644395        0       1.00000000       0.26523325       2.65849494       0.54760259
H        3.83157705       1.06787436       4.17802811        0       1.00000000      -2.28344486       1.56997235      -2.19870384
21
Lattice="5.612310241546866 0.0 0.0 0.0 4.860403243099165 0.0 0.0 0.0 24.582432123328676" Properties=species:S:1:pos:R:3:tags:I:1:masses:R:1:momenta:R:3 KEmax=27.14459056223422 iter=399 volume=670.5618179858607 ns_energy=19.89812696831508 last_walked_iter_clone=309 ns_P=0.0 config_n_global=399 ns_KE=25.886984996164657 pbc="T T T"
H        1.40307756       0.81006721      10.00000000        3       1.00000000       0.00000000       0.00000000       0.00000000
H        4.20923268       0.81006721      10.00000000        3       1.00000000       0.00000000       0.00000000       0.00000000
H        0.00000000       3.24026883      10.00000000        3       1.00000000       0.00000000       0.00000000       0.00000000
H        2.80615512       3.24026883      10.00000000        3       1.00000000       0.00000000       0.00000000       0.00000000
H        0.00000000       1.62013441      12.29121606        2       1.00000000       0.00000000       0.00000000       0.00000000
H        2.80615512       1.62013441      12.29121606        2       1.00000000       0.00000000       0.00000000       0.00000000
H        1.40307756       4.05033604      12.29121606        2       1.00000000       0.00000000       0.00000000       0.00000000
H        4.20923268       4.05033604      12.29121606        2       1.00000000       0.00000000       0.00000000       0.00000000
H        0.00000000       0.00000000      14.58243212        1       1.00000000       0.00000000       0.00000000       0.00000000
H        2.80615512       0.00000000      14.58243212        1       1.00000000       0.00000000       0.00000000       0.00000000
H        1.40307756       2.43020162      14.58243212        1       1.00000000       0.00000000       0.00000000       0.00000000
H        4.20923268       2.43020162      14.58243212        1       1.00000000       0.00000000       0.00000000       0.00000000
H        1.33704915       4.73836172      18.88999404        0       1.00000000       1.60034710      -0.61913953      -1.00853771
H        2.37291428       1.88560644       4.17008197        0       1.00000000       0.60722964      -0.46999007      -0.17559525
H        4.55737727       0.11236468       5.05718624        0       1.00000000      -0.67171430       0.51578108       1.14993016
H        0.52099251       2.86708835       1.55833439        0       1.00000000      -0.08698928      -1.11476507      -1.37090467
H        5.56611848       0.95730305      17.63471735        0       1.00000000      -0.74467192      -1.03051604      -1.36174449
H        3.21235345       4.76582924       2.05109572        0       1.00000000       1.49998556       0.26412595      -1.38049344
H        4.31989810       3.55874738      20.21927597        0       1.00000000      -0.63155115       1.30396252       1.06608874
H        4.48000577       2.19509523       0.42882304        0       1.00000000       1.62371390       4.48616886      -1.57479422
H        5.55024673       2.76034475       4.09827834        0       1.00000000       0.58679113      -2.27801090       0.56112916
21
Lattice="5.612310241546866 0.0 0.0 0.0 4.860403243099165 0.0 0.0 0.0 24.582432123328676" Properties=species:S:1:pos:R:3:tags:I:1:masses:R:1:momenta:R:3 KEmax=27.14459056223422 iter=499 volume=670.5618179858607 ns_energy=17.299643742400377 last_walked_iter_clone=310 ns_P=0.0 config_n_global=499 ns_KE=25.405028817224608 pbc="T T T"
H        1.40307756       0.81006721      10.00000000        3       1.00000000       0.00000000       0.00000000       0.00000000
H        4.20923268       0.81006721      10.00000000        3       1.00000000       0.00000000       0.00000000       0.00000000
H        0.00000000       3.24026883      10.00000000        3       1.00000000       0.00000000       0.00000000       0.00000000
H        2.80615512       3.24026883      10.00000000        3       1.00000000       0.00000000       0.00000000       0.00000000
H        0.00000000       1.62013441      12.29121606        2       1.00000000       0.00000000       0.00000000       0.00000000
H        2.80615512       1.62013441      12.29121606        2       1.00000000       0.00000000       0.00000000       0.00000000
H        1.40307756       4.05033604      12.29121606        2       1.00000000       0.00000000       0.00000000       0.00000000
H        4.20923268       4.05033604      12.29121606        2       1.00000000       0.00000000       0.00000000       0.00000000
H        0.00000000       0.00000000      14.58243212        1       1.00000000       0.00000000       0.00000000       0.00000000
H        2.80615512       0.00000000      14.58243212        1       1.00000000       0.00000000       0.00000000       0.00000000
H        1.40307756       2.43020162      14.58243212        1       1.00000000       0.00000000       0.00000000       0.00000000
H        4.20923268       2.43020162      14.58243212        1       1.00000000       0.00000000       0.00000000       0.00000000
H        2.30025014       4.10464992       4.69789759        0       1.00000000       0.08153876       2.83564808       0.71639142
H        3.72773618       0.15167863      23.62394524        0       1.00000000       0.31792221      -0.99830015       0.13525231
H        1.88486529       4.46618613       0.32567682        0       1.00000000      -2.27128409      -0.06191672      -1.31228936
H        2.48517475       3.52782914       2.35462629        0       1.00000000       3.03264173      -1.39424908      -0.01795588
H        5.34034593       1.37895613      21.31374503        0       1.00000000      -1.15547404      -0.61004019       1.88384355
H        3.85211980       0.60686084       6.74490674        0       1.00000000       0.38083891       1.17772009       0.70157525
H        2.44119326       1.79434629      21.27012229        0       1.00000000      -0.93479414      -0.93002572      -2.31078549
H        2.11098216       1.60129344       3.73260361        0       1.00000000      -0.14652374      -1.82330593       0.45698060
H        3.86265743       2.47490564      24.47517398        0       1.00000000       2.11056573       0.33477919      -0.79199142
21
Lattice="5.612310241546866 0.0 0.0 0.0 4.860403243099165 0.0 0.0 0.0 24.582432123328676" Properties=species:S:1:pos:R:3:tags:I:1:masses:R:1:momenta:R:3 KEmax=27.14459056223422 iter=599 volume=670.5618179858607 ns_energy=15.770479392530316 last_walked_iter_clone=489 ns_P=0.0 config_n_global=599 ns_KE=25.32656677316982 pbc="T T T"
H        1.40307756       0.81006721      10.00000000        3       1.00000000       0.00000000       0.00000000       0.00000000
H        4.20923268       0.81006721      10.00000000        3       1.00000000       0.00000000       0.00000000       0.00000000
H        0.00000000       3.24026883      10.00000000        3       1.00000000       0.00000000       0.00000000       0.00000000
H        2.80615512       3.24026883      10.00000000        3       1.00000000       0.00000000       0.00000000       0.00000000
H        0.00000000       1.62013441      12.29121606        2       1.00000000       0.00000000       0.00000000       0.00000000
H        2.80615512       1.62013441      12.29121606        2       1.00000000       0.00000000       0.00000000       0.00000000
H        1.40307756       4.05033604      12.29121606        2       1.00000000       0.00000000       0.00000000       0.00000000
H        4.20923268       4.05033604      12.29121606        2       1.00000000       0.00000000       0.00000000       0.00000000
H        0.00000000       0.00000000      14.58243212        1       1.00000000       0.00000000       0.00000000       0.00000000
H        2.80615512       0.00000000      14.58243212        1       1.00000000       0.00000000       0.00000000       0.00000000
H        1.40307756       2.43020162      14.58243212        1       1.00000000       0.00000000       0.00000000       0.00000000
H        4.20923268       2.43020162      14.58243212        1       1.00000000       0.00000000       0.00000000       0.00000000
H        0.59732135       2.26291706       2.44587830        0       1.00000000      -0.92761165       0.55348479       0.39273249
H        4.17131341       3.02885411       7.56330657        0       1.00000000       1.66201867       1.38301596       2.18256216
H        0.40229082       0.91267297       6.44163685        0       1.00000000       0.84216688      -2.36374870       0.54884532
H        1.80159260       3.55513609       4.09237439        0       1.00000000      -1.11004170      -1.57425489       0.76196912
H        4.96840661       3.86908073      18.50980430        0       1.00000000      -0.73892748       0.74559993      -2.29592503
H        3.10321941       0.79653715       3.50034513        0       1.00000000       0.02764925      -1.29015786      -0.22615642
H        2.10127653       3.42409673      22.58893810        0       1.00000000      -1.84105869      -3.00961799       1.83028914
H        1.88864564       3.65945901      19.46151683        0       1.00000000       0.93918507      -1.47701799      -0.36637411
H        4.48604426       3.52612092       4.33031594        0       1.00000000       0.22106260       0.40510783      -1.30647469
21
Lattice="5.612310241546866 0.0 0.0 0.0 4.860403243099165 0.0 0.0 0.0 24.582432123328676" Properties=species:S:1:pos:R:3:tags:I:1:masses:R:1:momenta:R:3 KEmax=27.14459056223422 iter=699 volume=670.5618179858607 ns_energy=14.373913877051601 last_walked_iter_clone=581 ns_P=0.0 config_n_global=699 ns_KE=23.73299059280975 pbc="T T T"
H        1.40307756       0.81006721      10.00000000        3       1.00000000       0.00000000       0.00000000       0.00000000
H        4.20923268       0.81006721      10.00000000        3       1.00000000       0.00000000       0.00000000       0.00000000
H        0.00000000       3.24026883      10.00000000        3       1.00000000       0.00000000       0.00000000       0.00000000
H        2.80615512       3.24026883      10.00000000        3       1.00000000       0.00000000       0.00000000       0.00000000
H        0.00000000       1.62013441      12.29121606        2       1.00000000       0.00000000       0.00000000       0.00000000
H        2.80615512       1.62013441      12.29121606        2       1.00000000       0.00000000       0.00000000       0.00000000
H        1.40307756       4.05033604      12.29121606        2       1.00000000       0.00000000       0.00000000       0.00000000
H        4.20923268       4.05033604      12.29121606        2       1.00000000       0.00000000       0.00000000       0.00000000
H        0.00000000       0.00000000      14.58243212        1       1.00000000       0.00000000       0.00000000       0.00000000
H        2.80615512       0.00000000      14.58243212        1       1.00000000       0.00000000       0.00000000       0.00000000
H        1.40307756       2.43020162      14.58243212        1       1.00000000       0.00000000       0.00000000       0.00000000
H        4.20923268       2.43020162      14.58243212        1       1.00000000       0.00000000       0.00000000       0.00000000
H        2.71605469       0.55513863      23.05351731        0       1.00000000       1.20671418      -0.32162624      -2.22647219
H        2.59253625       2.91396398      17.34574365        0       1.00000000      -0.02966286      -0.48606721      -1.76742611
H        2.86881511       0.40852355       3.98960069        0       1.00000000       0.76477901      -1.62593561      -2.92708331
H        1.16546757       2.30401661      20.27989955        0       1.00000000      -1.22000334       0.54193756       0.89866180
H        0.17760784       0.18042243      18.07938658        0       1.00000000      -0.07754597       3.21792958       0.16250313
H        2.43056786       3.68133628       1.18833595        0       1.00000000       0.49215732       0.67447154       0.35881760
H        4.48804487       3.60895960      20.20156223        0       1.00000000       0.42378835      -1.06475219      -0.40452981
H        0.11702792       2.44658645       2.42625028        0       1.00000000       0.53956506       1.54518197      -0.38838399
H        3.80045729       2.43820232       6.86351577        0       1.00000000       2.24331863      -0.15473069      -1.62046473
21
Lattice="5.612310241546866 0.0 0.0 0.0 4.860403243099165 0.0 0.0 0.0 24.582432123328676" Properties=species:S:1:pos:R:3:tags:I:1:masses:R:1:momenta:R:3 KEmax=27.14459056223422 iter=799 volume=670.5618179858607 ns_energy=13.130883477397155 last_walked_iter_clone=712 ns_P=0.0 config_n_global=799 ns_KE=20.792930619105437 pbc="T T T"
H        1.40307756       0.81006721      10.00000000        3       1.00000000       0.00000000       0.00000000       0.00000000
H        4.20923268       0.81006721      10.00000000        3       1.00000000       0.00000000       0.00000000       0.00000000
H        0.00000000       3.24026883      10.00000000        3       1.00000000       0.00000000       0.00000000       0.00000000
H        2.80615512       3.24026883      10.00000000        3       1.00000000       0.00000000       0.00000000       0.00000000
H        0.00000000       1.62013441      12.29121606        2       1.00000000       0.00000000       0.00000000       0.00000000
H        2.80615512       1.62013441      12.29121606        2       1.00000000       0.00000000       0.00000000       0.00000000
H        1.40307756       4.05033604      12.29121606        2       1.00000000       0.00000000       0.00000000       0.00000000
H        4.20923268       4.05033604      12.29121606        2       1.00000000       0.00000000       0.00000000       0.00000000
H        0.00000000       0.00000000      14.58243212        1       1.00000000       0.00000000       0.00000000       0.00000000
H        2.80615512       0.00000000      14.58243212        1       1.00000000       0.00000000       0.00000000       0.00000000
H        1.40307756       2.43020162      14.58243212        1       1.00000000       0.00000000       0.00000000       0.00000000
H        4.20923268       2.43020162      14.58243212        1       1.00000000       0.00000000       0.00000000       0.00000000
H        2.58525595       3.68169483      18.77141340        0       1.00000000       0.06646957      -1.01135803       2.16552429
H        3.41237220       4.11609551      16.52573345        0       1.00000000      -1.59006310      -3.01042412      -0.81793876
H        2.77734999       3.72516450      23.97255149        0       1.00000000       0.46528563       0.96822541      -0.36345467
H        4.36949853       2.04345042       7.80788035        0       1.00000000      -0.17309615       0.64908327      -0.08820138
H        0.72229620       0.36528955       3.96140511        0       1.00000000       0.40487099      -0.36348445       0.19317115
H        2.70172918       0.74260832       1.12915289        0       1.00000000       0.47545745      -0.28507064       1.55752485
H       -0.00208328       1.99564334       1.94391271        0       1.00000000      -0.57655806      -1.23184226      -0.82743159
H        3.09776572       4.95892250      20.78956493        0       1.00000000      -1.73939435       2.77682342      -0.25960839
H        4.75759321       3.08617735      22.71181993        0       1.00000000       0.85734866      -1.09228211      -1.87914769
21
Lattice="5.612310241546866 0.0 0.0 0.0 4.860403243099165 0.0 0.0 0.0 24.582432123328676" Properties=species:S:1:pos:R:3:tags:I:1:masses:R:1:momenta:R:3 KEmax=27.14459056223422 iter=899 volume=670.5618179858607 ns_energy=11.850938092664176 last_walked_iter_clone=808 ns_P=0.0 config_n_global=899 ns_KE=20.83789019471326 pbc="T T T"
H        1.40307756       0.81006721      10.00000000        3       1.00000000       0.00000000       0.00000000       0.00000000
H        4.20923268       0.81006721      10.00000000        3       1.00000000       0.00000000       0.00000000       0.00000000
H        0.00000000       3.24026883      10.00000000        3       1.00000000       0.00000000       0.00000000       0.00000000
H        2.80615512       3.24026883      10.00000000        3       1.00000000       0.00000000       0.00000000       0.00000000
H        0.00000000       1.62013441      12.29121606        2       1.00000000       0.00000000       0.00000000       0.00000000
H        2.80615512       1.62013441      12.29121606        2       1.00000000       0.00000000       0.00000000       0.00000000
H        1.40307756       4.05033604      12.29121606        2       1.00000000       0.00000000       0.00000000       0.00000000
H        4.20923268       4.05033604      12.29121606        2       1.00000000       0.00000000       0.00000000       0.00000000
H        0.00000000       0.00000000      14.58243212        1       1.00000000       0.00000000       0.00000000       0.00000000
H        2.80615512       0.00000000      14.58243212        1       1.00000000       0.00000000       0.00000000       0.00000000
H        1.40307756       2.43020162      14.58243212        1       1.00000000       0.00000000       0.00000000       0.00000000
H        4.20923268       2.43020162      14.58243212        1       1.00000000       0.00000000       0.00000000       0.00000000
H        3.42344026       2.67743450       7.41975595        0       1.00000000       0.63695751      -0.28718818      -0.90808400
H        1.55529434       2.44899342       2.37214153        0       1.00000000       1.35590850       1.23392478      -0.43035824
H        3.93040791       2.24772846       1.61325392        0       1.00000000       0.31939285       0.05670521      -1.63362590
H        4.16152734       4.75559552      22.35334534        0       1.00000000       0.41860936      -0.30095792       0.62202179
H        0.96319447       2.69638046      19.05016976        0       1.00000000      -1.57467640       1.73783240       0.45223641
H        0.13355600       4.74563469       4.35183097        0       1.00000000       1.03305367      -2.23366283      -2.64494857
H        4.16220219       2.29503598      19.00738172        0       1.00000000       2.75460298       1.22963141      -0.56710765
H        0.78194572       4.92720698      17.14887937        0       1.00000000       0.54556670      -0.95247756      -0.07737512
H        2.28294482       3.66985185       4.53106675        0       1.00000000      -0.50752987      -0.39376447      -1.89439015
21
Lattice="5.612310241546866 0.0 0.0 0.0 4.860403243099165 0.0 0.0 0.0 24.582432123328676" Properties=species:S:1:pos:R:3:tags:I:1:masses:R:1:momenta:R:3 KEmax=27.14459056223422 iter=999 volume=670.5618179858607 ns_energy=10.741878666615042 last_walked_iter_clone=882 ns_P=0.0 config_n_global=999 ns_KE=19.31704968659561 pbc="T T T"
H        1.40307756       0.81006721      10.00000000        3       1.00000000       0.00000000       0.00000000       0.00000000
H        4.20923268       0.81006721      10.00000000        3       1.00000000       0.00000000       0.00000000       0.00000000
H        0.00000000       3.24026883      10.00000000        3       1.00000000       0.00000000       0.00000000       0.00000000
H        2.80615512       3.24026883      10.00000000        3       1.00000000       0.00000000       0.00000000       0.00000000
H        0.00000000       1.62013441      12.29121606        2       1.00000000       0.00000000       0.00000000       0.00000000
H        2.80615512       1.62013441      12.29121606        2       1.00000000       0.00000000       0.00000000       0.00000000
H        1.40307756       4.05033604      12.29121606        2       1.00000000       0.00000000       0.00000000       0.00000000
H        4.20923268       4.05033604      12.29121606        2       1.00000000       0.00000000       0.00000000       0.00000000
H        0.00000000       0.00000000      14.58243212        1       1.00000000       0.00000000       0.00000000       0.00000000
H        2.80615512       0.00000000      14.58243212        1       1.00000000       0.00000000       0.00000000       0.00000000
H        1.40307756       2.43020162      14.58243212        1       1.00000000       0.00000000       0.00000000       0.00000000
H        4.20923268       2.43020162      14.58243212        1       1.00000000       0.00000000       0.00000000       0.00000000
H        2.66569644       4.01104495      20.56580118        0       1.00000000      -0.74953125      -0.52575938      -0.06661170
H        3.89782526       1.11896768      16.64432595        0       1.00000000       0.15815655      -1.28223743       0.75395596