21
Lattice="5.612310241546866 0.0 0.0 0.0 4.860403243099165 0.0 0.0 0.0 24.582432123328676" Properties=species:S:1:pos:R:3:tags:I:1:masses:R:1:momenta:R:3:forces:R:3 KEmax=27.14459056223422 iter=90321 volume=670.5618179858607 ns_energy=-14.087860256397732 last_walked_iter_clone=90200 energy=-14.0878602569561 stress="0.009827561577466807 2.3800336770599705e-09 3.170629901794529e-08 2.3800336770599705e-09 0.009854805308946307 9.161761717905375e-08 3.170629901794529e-08 9.161761717905375e-08 0.004937651636064616" pbc="T T T"
H        1.40307756       0.81006721      10.00000000        3       1.00000000       0.00000000       0.00000000       0.00000000       0.00000000       0.00000000       0.00000000
H        4.20923268       0.81006721      10.00000000        3       1.00000000       0.00000000       0.00000000       0.00000000       0.00000000       0.00000000       0.00000000
H        0.00000000       3.24026883      10.00000000        3       1.00000000       0.00000000       0.00000000       0.00000000       0.00000000       0.00000000       0.00000000
H        2.80615512       3.24026883      10.00000000        3       1.00000000       0.00000000       0.00000000       0.00000000       0.00000000       0.00000000       0.00000000
H        0.00000000       1.62013441      12.29121606        2       1.00000000       0.00000000       0.00000000       0.00000000       0.00000000       0.00000000       0.00000000
H        2.80615512       1.62013441      12.29121606        2       1.00000000       0.00000000       0.00000000       0.00000000       0.00000000       0.00000000       0.00000000
H        1.40307756       4.05033604      12.29121606        2       1.00000000       0.00000000       0.00000000       0.00000000       0.00000000       0.00000000       0.00000000
H        4.20923268       4.05033604      12.29121606        2       1.00000000       0.00000000       0.00000000       0.00000000       0.00000000       0.00000000       0.00000000
H        0.00000000       0.00000000      14.58243212        1       1.00000000       0.00000000       0.00000000       0.00000000       0.00000000       0.00000000       0.00000000
H        2.80615512       0.00000000      14.58243212        1       1.00000000       0.00000000       0.00000000       0.00000000       0.00000000       0.00000000       0.00000000
H        1.40307756       2.43020162      14.58243212        1       1.00000000       0.00000000       0.00000000       0.00000000       0.00000000       0.00000000       0.00000000
H        4.20923268       2.43020162      14.58243212        1       1.00000000       0.00000000       0.00000000       0.00000000       0.00000000       0.00000000       0.00000000
H        1.40309057       0.79347154      16.80072782        0       1.00000000       0.00000167      -0.00001088       0.00000245       0.00001324      -0.00001809       0.00001413
H        5.60495447       3.24443196      16.79600734        0       1.00000000       0.00000073      -0.00000003       0.00000559       0.00001676       0.00001209       0.00002355
H       -0.00001277       0.00000479       7.77172620        0       1.00000000      -0.00000041      -0.00000573      -0.00000459      -0.00001195       0.00002375      -0.00000111
H        4.20923833       0.81921856      16.83184433        0       1.00000000       0.00000127      -0.00001221       0.00000426      -0.00000494       0.00000084      -0.00000631
H        2.80614317       0.00000599       7.77172489        0       1.00000000      -0.00000459      -0.00001237       0.00001107       0.00002397       0.00000774      -0.00000913
H        1.40307396       2.43019821       7.77172682        0       1.00000000       0.00000722      -0.00000196       0.00000173      -0.00000416      -0.00001896       0.00001428
H        1.40309235       2.42881203      19.01468709        0       1.00000000       0.00000498      -0.00000212      -0.00000516      -0.00000247       0.00000119      -0.00003029
H        4.20922294       2.43020943       7.77173418        0       1.00000000      -0.00000815      -0.00000114       0.00000422       0.00000003       0.00000418       0.00002926
H        2.81351872       3.24442945      16.79599543        0       1.00000000       0.00000261       0.00000319      -0.00000552      -0.00002170      -0.00000746       0.00002408
21
Lattice="5.612310241546866 0.0 0.0 0.0 4.860403243099165 0.0 0.0 0.0 24.582432123328676" Properties=species:S:1:pos:R:3:tags:I:1:masses:R:1:momenta:R:3:forces:R:3 KEmax=27.14459056223422 iter=90321 volume=670.5618179858607 ns_energy=-14.08786025642134 last_walked_iter_clone=90314 energy=-14.0878602569561 stress="0.009827561577466807 2.3800336770599705e-09 3.170629901794529e-08 2.3800336770599705e-09 0.009854805308946307 9.161761717905375e-08 3.170629901794529e-08 9.161761717905375e-08 0.004937651636064616" pbc="T T T"
H        1.40307756       0.81006721      10.00000000        3       1.00000000       0.00000000       0.00000000       0.00000000       0.00000000       0.00000000       0.00000000
H        4.20923268       0.81006721      10.00000000        3       1.00000000       0.00000000       0.00000000       0.00000000       0.00000000       0.00000000       0.00000000
H        0.00000000       3.24026883      10.00000000        3       1.00000000       0.00000000       0.00000000       0.00000000       0.00000000       0.00000000       0.00000000
H        2.80615512       3.24026883      10.00000000        3       1.00000000       0.00000000       0.00000000       0.00000000       0.00000000       0.00000000       0.00000000
H        0.00000000       1.62013441      12.29121606        2       1.00000000       0.00000000       0.00000000       0.00000000       0.00000000       0.00000000       0.00000000
H        2.80615512       1.62013441      12.29121606        2       1.00000000       0.00000000       0.00000000       0.00000000       0.00000000       0.00000000       0.00000000
H        1.40307756       4.05033604      12.29121606        2       1.00000000       0.00000000       0.00000000       0.00000000       0.00000000       0.00000000       0.00000000
H        4.20923268       4.05033604      12.29121606        2       1.00000000       0.00000000       0.00000000       0.00000000       0.00000000       0.00000000       0.00000000
H        0.00000000       0.00000000      14.58243212        1       1.00000000       0.00000000       0.00000000       0.00000000       0.00000000       0.00000000       0.00000000
H        2.80615512       0.00000000      14.58243212        1       1.00000000       0.00000000       0.00000000       0.00000000       0.00000000       0.00000000       0.00000000
H        1.40307756       2.43020162      14.58243212        1       1.00000000       0.00000000       0.00000000       0.00000000       0.00000000       0.00000000       0.00000000
H        4.20923268       2.43020162      14.58243212        1       1.00000000       0.00000000       0.00000000       0.00000000       0.00000000       0.00000000       0.00000000
H        1.40307347       0.79346938      16.80072524        0       1.00000000      -0.00000569      -0.00000287       0.00000308       0.00001324      -0.00001809       0.00001413
H        5.60494624       3.24443210      16.79600140        0       1.00000000      -0.00000714      -0.00001164      -0.00000329       0.00001676       0.00001209       0.00002355
H        5.61231095       4.86040368       7.77174051        0       1.00000000       0.00001188       0.00000184      -0.00001022      -0.00001195       0.00002375      -0.00000111
H        4.20922853       0.81923085      16.83185381        0       1.00000000      -0.00000017       0.00000318       0.00000004      -0.00000494       0.00000084      -0.00000631
H        2.80615380      -0.00000632       7.77172603        0       1.00000000       0.00000231       0.00000458       0.00001450       0.00002397       0.00000774      -0.00000913
H        1.40306961       2.43020160       7.77172912        0       1.00000000       0.00000294      -0.00000001       0.00000003      -0.00000416      -0.00001896       0.00001428
H        1.40306319       2.42881155      19.01469293        0       1.00000000      -0.00000338       0.00000109       0.00001920      -0.00000247       0.00000119      -0.00003029
H        4.20922859       2.43019732       7.77173178        0       1.00000000       0.00000608      -0.00000688      -0.00001220       0.00000003       0.00000418       0.00002926
H        2.81351871       3.24443543      16.79600359        0       1.00000000       0.00000524       0.00000145      -0.00000540      -0.00002170      -0.00000746       0.00002408
21
Lattice="5.612310241546866 0.0 0.0 0.0 4.860403243099165 0.0 0.0 0.0 24.582432123328676" Properties=species:S:1:pos:R:3:tags:I:1:masses:R:1:momenta:R:3:forces:R:3 KEmax=27.14459056223422 iter=90321 volume=670.5618179858607 ns_energy=-14.087860256409458 last_walked_iter_clone=90259 energy=-14.0878602569561 stress="0.009827561577466807 2.3800336770599705e-09 3.170629901794529e-08 2.3800336770599705e-09 0.009854805308946307 9.161761717905375e-08 3.170629901794529e-08 9.161761717905375e-08 0.004937651636064616" pbc="T T T"
H        1.40307756       0.81006721      10.00000000        3       1.00000000       0.00000000       0.00000000       0.00000000       0.00000000       0.00000000       0.00000000
H        4.20923268       0.81006721      10.00000000        3       1.00000000       0.00000000       0.00000000       0.00000000       0.00000000       0.00000000       0.00000000
H        0.00000000       3.24026883      10.00000000        3       1.00000000       0.00000000       0.00000000       0.00000000       0.00000000       0.00000000       0.00000000
H        2.80615512       3.24026883      10.00000000        3       1.00000000       0.00000000       0.00000000       0.00000000       0.00000000       0.00000000       0.00000000
H        0.00000000       1.62013441      12.29121606        2       1.00000000       0.00000000       0.00000000       0.00000000       0.00000000       0.00000000       0.00000000
H        2.80615512       1.62013441      12.29121606        2       1.00000000       0.00000000       0.00000000       0.00000000       0.00000000       0.00000000       0.00000000
H        1.40307756       4.05033604      12.29121606        2       1.00000000       0.00000000       0.00000000       0.00000000       0.00000000       0.00000000       0.00000000
H        4.20923268       4.05033604      12.29121606        2       1.00000000       0.00000000       0.00000000       0.00000000       0.00000000       0.00000000       0.00000000
H        0.00000000       0.00000000      14.58243212        1       1.00000000       0.00000000       0.00000000       0.00000000       0.00000000       0.00000000       0.00000000
H        2.80615512       0.00000000      14.58243212        1       1.00000000       0.00000000       0.00000000       0.00000000       0.00000000       0.00000000       0.00000000
H        1.40307756       2.43020162      14.58243212        1       1.00000000       0.00000000       0.00000000       0.00000000       0.00000000       0.00000000       0.00000000
H        4.20923268       2.43020162      14.58243212        1       1.00000000       0.00000000       0.00000000       0.00000000       0.00000000       0.00000000       0.00000000
H        1.40307859       0.79346827      16.80071797        0       1.00000000       0.00000726      -0.00001126      -0.00000921       0.00001324      -0.00001809       0.00001413
H        5.60495404       3.24443493      16.79600040        0       1.00000000      -0.00000098      -0.00000974       0.00000645       0.00001676       0.00001209       0.00002355
H        5.61231289      -0.00000101       7.77172511        0       1.00000000      -0.00000237      -0.00001496      -0.00000946      -0.00001195       0.00002375      -0.00000111
H        4.20923475       0.81922099      16.83184883        0       1.00000000      -0.00000523      -0.00000073       0.00000021      -0.00000494       0.00000084      -0.00000631
H        2.80615405       0.00000291       7.77172236        0       1.00000000       0.00001029      -0.00000359      -0.00000474       0.00002397       0.00000774      -0.00000913
H        1.40307578       2.43019775       7.77172607        0       1.00000000       0.00001327      -0.00000007      -0.00000976      -0.00000416      -0.00001896       0.00001428
H        1.40308684       2.42881589      19.01468096        0       1.00000000      -0.00000780      -0.00000039      -0.00001169      -0.00000247       0.00000119      -0.00003029
H        4.20922382       2.43019820       7.77173174        0       1.00000000      -0.00000049      -0.00000044       0.00000017       0.00000003       0.00000418       0.00002926
H        2.81352808       3.24443631      16.79598912        0       1.00000000      -0.00000615       0.00000678      -0.00000386      -0.00002170      -0.00000746       0.00002408
21
Lattice="5.612310241546866 0.0 0.0 0.0 4.860403243099165 0.0 0.0 0.0 24.582432123328676" Properties=species:S:1:pos:R:3:tags:I:1:masses:R:1:momenta:R:3:forces:R:3 KEmax=27.14459056223422 iter=90321 volume=670.5618179858607 ns_energy=-14.087860256486975 last_walked_iter_clone=90211 energy=-14.0878602569561 stress="0.009827561577466807 2.3800336770599705e-09 3.170629901794529e-08 2.3800336770599705e-09 0.009854805308946307 9.161761717905375e-08 3.170629901794529e-08 9.161761717905375e-08 0.004937651636064616" pbc="T T T"
H        1.40307756       0.81006721      10.00000000        3       1.00000000       0.00000000       0.00000000       0.00000000       0.00000000       0.00000000       0.00000000
H        4.20923268       0.81006721      10.00000000        3       1.00000000       0.00000000       0.00000000       0.00000000       0.00000000       0.00000000       0.00000000
H        0.00000000       3.24026883      10.00000000        3       1.00000000       0.00000000       0.00000000       0.00000000       0.00000000       0.00000000       0.00000000
H        2.80615512       3.24026883      10.00000000        3       1.00000000       0.00000000       0.00000000       0.00000000       0.00000000       0.00000000       0.00000000
H        0.00000000       1.62013441      12.29121606        2       1.00000000       0.00000000       0.00000000       0.00000000       0.00000000       0.00000000       0.00000000
H        2.80615512       1.62013441      12.29121606        2       1.00000000       0.00000000       0.00000000       0.00000000       0.00000000       0.00000000       0.00000000
H        1.40307756       4.05033604      12.29121606        2       1.00000000       0.00000000       0.00000000       0.00000000       0.00000000       0.00000000       0.00000000
H        4.20923268       4.05033604      12.29121606        2       1.00000000       0.00000000       0.00000000       0.00000000       0.00000000       0.00000000       0.00000000
H        0.00000000       0.00000000      14.58243212        1       1.00000000       0.00000000       0.00000000       0.00000000       0.00000000       0.00000000       0.00000000
H        2.80615512       0.00000000      14.58243212        1       1.00000000       0.00000000       0.00000000       0.00000000       0.00000000       0.00000000       0.00000000
H        1.40307756       2.43020162      14.58243212        1       1.00000000       0.00000000       0.00000000       0.00000000       0.00000000       0.00000000       0.00000000
H        4.20923268       2.43020162      14.58243212        1       1.00000000       0.00000000       0.00000000       0.00000000       0.00000000       0.00000000       0.00000000
H        1.40308017       0.79347521      16.80072125        0       1.00000000       0.00000381      -0.00001658      -0.00000539       0.00001324      -0.00001809       0.00001413
H        5.60494369       3.24442613      16.79600118        0       1.00000000       0.00000050       0.00001032       0.00000513       0.00001676       0.00001209       0.00002355
H        5.61230518       0.00000595       7.77173629        0       1.00000000       0.00001016      -0.00000645      -0.00000704      -0.00001195       0.00002375      -0.00000111
H        4.20923798       0.81922244      16.83184521        0       1.00000000      -0.00000115      -0.00000677       0.00000395      -0.00000494       0.00000084      -0.00000631
H        2.80614395       0.00000966       7.77172345        0       1.00000000      -0.00000248       0.00000538       0.00000224       0.00002397       0.00000774      -0.00000913
H        1.40306770       2.43020403       7.77173009        0       1.00000000       0.00000019      -0.00001283      -0.00001363      -0.00000416      -0.00001896       0.00001428
H        1.40306867       2.42882058      19.01469140        0       1.00000000      -0.00000458       0.00000103       0.00001036      -0.00000247       0.00000119      -0.00003029
H        4.20923111       2.43020862       7.77172982        0       1.00000000       0.00000982       0.00001035      -0.00000595       0.00000003       0.00000418       0.00002926
H        2.81351576       3.24442939      16.79599867        0       1.00000000       0.00000860       0.00000338      -0.00000657      -0.00002170      -0.00000746       0.00002408
21
Lattice="5.612310241546866 0.0 0.0 0.0 4.860403243099165 0.0 0.0 0.0 24.582432123328676" Properties=species:S:1:pos:R:3:tags:I:1:masses:R:1:momenta:R:3:forces:R:3 KEmax=27.14459056223422 iter=90321 volume=670.5618179858607 ns_energy=-14.087860256389096 last_walked_iter_clone=90249 energy=-14.0878602569561 stress="0.009827561577466807 2.3800336770599705e-09 3.170629901794529e-08 2.3800336770599705e-09 0.009854805308946307 9.161761717905375e-08 3.170629901794529e-08 9.161761717905375e-08 0.004937651636064616" pbc="T T T"
H        1.40307756       0.81006721      10.00000000        3       1.00000000       0.00000000       0.00000000       0.00000000       0.00000000       0.00000000       0.00000000
H        4.20923268       0.81006721      10.00000000        3       1.00000000       0.00000000       0.00000000       0.00000000       0.00000000       0.00000000       0.00000000
H        0.00000000       3.24026883      10.00000000        3       1.00000000       0.00000000       0.00000000       0.00000000       0.00000000       0.00000000       0.00000000
H        2.80615512       3.24026883      10.00000000        3       1.00000000       0.00000000       0.00000000       0.00000000       0.00000000       0.00000000       0.00000000
H        0.00000000       1.62013441      12.29121606        2       1.00000000       0.00000000       0.00000000       0.00000000       0.00000000       0.00000000       0.00000000
H        2.80615512       1.62013441      12.29121606        2       1.00000000       0.00000000       0.00000000       0.00000000       0.00000000       0.00000000       0.00000000
H        1.40307756       4.05033604      12.29121606        2       1.00000000       0.00000000       0.00000000       0.00000000       0.00000000       0.00000000       0.00000000
H        4.20923268       4.05033604      12.29121606        2       1.00000000       0.00000000       0.00000000       0.00000000       0.00000000       0.00000000       0.00000000
H        0.00000000       0.00000000      14.58243212        1       1.00000000       0.00000000       0.00000000       0.00000000       0.00000000       0.00000000       0.00000000
H        2.80615512       0.00000000      14.58243212        1       1.00000000       0.00000000       0.00000000       0.00000000       0.00000000       0.00000000       0.00000000
H        1.40307756       2.43020162      14.58243212        1       1.00000000       0.00000000       0.00000000       0.00000000       0.00000000       0.00000000       0.00000000
H        4.20923268       2.43020162      14.58243212        1       1.00000000       0.00000000       0.00000000       0.00000000       0.00000000       0.00000000       0.00000000
H        1.40307964       0.79347734      16.80072573        0       1.00000000       0.00000480       0.00001403       0.00000345       0.00001324      -0.00001809       0.00001413
H        5.60495520       3.24443125      16.79599557        0       1.00000000       0.00000060      -0.00000083      -0.00000860       0.00001676       0.00001209       0.00002355
H        5.61231264       4.86040548       7.77172861        0       1.00000000      -0.00000815       0.00000060       0.00000863      -0.00001195       0.00002375      -0.00000111
H        4.20923511       0.81922267      16.83184898        0       1.00000000       0.00000076      -0.00000069       0.00000847      -0.00000494       0.00000084      -0.00000631
H        2.80614556       4.86040790       7.77173001        0       1.00000000      -0.00000472       0.00001573       0.00000029       0.00002397       0.00000774      -0.00000913
H        1.40307423       2.43020025       7.77172540        0       1.00000000      -0.00000367      -0.00000510       0.00000456      -0.00000416      -0.00001896       0.00001428
H        1.40310365       2.42884072      19.01468816        0       1.00000000       0.00000912      -0.00000631       0.00001319      -0.00000247       0.00000119      -0.00003029
H        4.20923071       2.43020705       7.77172381        0       1.00000000       0.00000645       0.00000134       0.00000688       0.00000003       0.00000418       0.00002926
H        2.81351816       3.24443632      16.79599427        0       1.00000000      -0.00000568      -0.00000889       0.00001180      -0.00002170      -0.00000746       0.00002408
21
Lattice="5.612310241546866 0.0 0.0 0.0 4.860403243099165 0.0 0.0 0.0 24.582432123328676" Properties=species:S:1:pos:R:3:tags:I:1:masses:R:1:momenta:R:3:forces:R:3 KEmax=27.14459056223422 iter=90321 volume=670.5618179858607 ns_energy=-14.08786025640631 last_walked_iter_clone=90267 energy=-14.0878602569561 stress="0.009827561577466807 2.3800336770599705e-09 3.170629901794529e-08 2.3800336770599705e-09 0.009854805308946307 9.161761717905375e-08 3.170629901794529e-08 9.161761717905375e-08 0.004937651636064616" pbc="T T T"
H        1.40307756       0.81006721      10.00000000        3       1.00000000       0.00000000       0.00000000       0.00000000       0.00000000       0.00000000       0.00000000
H        4.20923268       0.81006721      10.00000000        3       1.00000000       0.00000000       0.00000000       0.00000000       0.00000000       0.00000000       0.00000000
H        0.00000000       3.24026883      10.00000000        3       1.00000000       0.00000000       0.00000000       0.00000000       0.00000000       0.00000000       0.00000000
H        2.80615512       3.24026883      10.00000000        3       1.00000000       0.00000000       0.00000000       0.00000000       0.00000000       0.00000000       0.00000000
H        0.00000000       1.62013441      12.29121606        2       1.00000000       0.00000000       0.00000000       0.00000000       0.00000000       0.00000000       0.00000000
H        2.80615512       1.62013441      12.29121606        2       1.00000000       0.00000000       0.00000000       0.00000000       0.00000000       0.00000000       0.00000000
H        1.40307756       4.05033604      12.29121606        2       1.00000000       0.00000000       0.00000000       0.00000000       0.00000000       0.00000000       0.00000000
H        4.20923268       4.05033604      12.29121606        2       1.00000000       0.00000000       0.00000000       0.00000000       0.00000000       0.00000000       0.00000000
H        0.00000000       0.00000000      14.58243212        1       1.00000000       0.00000000       0.00000000       0.00000000       0.00000000       0.00000000       0.00000000
H        2.80615512       0.00000000      14.58243212        1       1.00000000       0.00000000       0.00000000       0.00000000       0.00000000       0.00000000       0.00000000
H        1.40307756       2.43020162      14.58243212        1       1.00000000       0.00000000       0.00000000       0.00000000       0.00000000       0.00000000       0.00000000
H        4.20923268       2.43020162      14.58243212        1       1.00000000       0.00000000       0.00000000       0.00000000       0.00000000       0.00000000       0.00000000
H        1.40307403       0.79346418      16.80071203        0       1.00000000       0.00001244       0.00000464      -0.00000873       0.00001324      -0.00001809       0.00001413
H        5.60494113       3.24442145      16.79599720        0       1.00000000      -0.00000980       0.00000535       0.00000730       0.00001676       0.00001209       0.00002355
H        5.61230761      -0.00000429       7.77172340        0       1.00000000      -0.00000088      -0.00000811       0.00000161      -0.00001195       0.00002375      -0.00000111
H        4.20923125       0.81920747      16.83185089        0       1.00000000       0.00000135      -0.00000661      -0.00001015      -0.00000494       0.00000084      -0.00000631
H        2.80614736       0.00000206       7.77172539        0       1.00000000       0.00000019       0.00000300      -0.00000003       0.00002397       0.00000774      -0.00000913
H        1.40306670       2.43020619       7.77171393        0       1.00000000      -0.00000111      -0.00000490       0.00001196      -0.00000416      -0.00001896       0.00001428
H        1.40305511       2.42880648      19.01468704        0       1.00000000      -0.00000615       0.00000262       0.00000257      -0.00000247       0.00000119      -0.00003029
H        4.20921911       2.43020024       7.77173192        0       1.00000000       0.00000754      -0.00001006       0.00000876       0.00000003       0.00000418       0.00002926
H        2.81351445       3.24442162      16.79600274        0       1.00000000      -0.00000162      -0.00000816      -0.00000070      -0.00002170      -0.00000746       0.00002408
21
Lattice="5.612310241546866 0.0 0.0 0.0 4.860403243099165 0.0 0.0 0.0 24.582432123328676" Properties=species:S:1:pos:R:3:tags:I:1:masses:R:1:momenta:R:3:forces:R:3 KEmax=27.14459056223422 iter=90321 volume=670.5618179858607 ns_energy=-14.087860256417565 last_walked_iter_clone=90304 energy=-14.0878602569561 stress="0.009827561577466807 2.3800336770599705e-09 3.170629901794529e-08 2.3800336770599705e-09 0.009854805308946307 9.161761717905375e-08 3.170629901794529e-08 9.161761717905375e-08 0.004937651636064616" pbc="T T T"
H        1.40307756       0.81006721      10.00000000        3       1.00000000       0.00000000       0.00000000       0.00000000       0.00000000       0.00000000       0.00000000
H        4.20923268       0.81006721      10.00000000        3       1.00000000       0.00000000       0.00000000       0.00000000       0.00000000       0.00000000       0.00000000
H        0.00000000       3.24026883      10.00000000        3       1.00000000       0.00000000       0.00000000       0.00000000       0.00000000       0.00000000       0.00000000
H        2.80615512       3.24026883      10.00000000        3       1.00000000       0.00000000       0.00000000       0.00000000       0.00000000       0.00000000       0.00000000
H        0.00000000       1.62013441      12.29121606        2       1.00000000       0.00000000       0.00000000       0.00000000       0.00000000       0.00000000       0.00000000
H        2.80615512       1.62013441      12.29121606        2       1.00000000       0.00000000       0.00000000       0.00000000       0.00000000       0.00000000       0.00000000
H        1.40307756       4.05033604      12.29121606        2       1.00000000       0.00000000       0.00000000       0.00000000       0.00000000       0.00000000       0.00000000
H        4.20923268       4.05033604      12.29121606        2       1.00000000       0.00000000       0.00000000       0.00000000       0.00000000       0.00000000       0.00000000
H        0.00000000       0.00000000      14.58243212        1       1.00000000       0.00000000       0.00000000       0.00000000       0.00000000       0.00000000       0.00000000
H        2.80615512       0.00000000      14.58243212        1       1.00000000       0.00000000       0.00000000       0.00000000       0.00000000       0.00000000       0.00000000
H        1.40307756       2.43020162      14.58243212        1       1.00000000       0.00000000       0.00000000       0.00000000       0.00000000       0.00000000       0.00000000
H        4.20923268       2.43020162      14.58243212        1       1.00000000       0.00000000       0.00000000       0.00000000       0.00000000       0.00000000       0.00000000
H        1.40308203       0.79346488      16.80071814        0       1.00000000      -0.00000369       0.00001182      -0.00000650       0.00001324      -0.00001809       0.00001413
H        5.60494782       3.24442814      16.79600259        0       1.00000000       0.00001194      -0.00000803       0.00000214       0.00001676       0.00001209       0.00002355
H        5.61231406       4.86040843       7.77172829        0       1.00000000      -0.00001048       0.00000418      -0.00000409      -0.00001195       0.00002375      -0.00000111
H        4.20924309       0.81921904      16.83185283        0       1.00000000      -0.00000552      -0.00000134       0.00000064      -0.00000494       0.00000084      -0.00000631
H        2.80615990       4.86040453       7.77172615        0       1.00000000       0.00001382      -0.00000869       0.00001105       0.00002397       0.00000774      -0.00000913
H        1.40307582       2.43021029       7.77172926        0       1.00000000      -0.00001519       0.00000493       0.00000733      -0.00000416      -0.00001896       0.00001428