24
Lattice="5.612310241546866 0.0 0.0 0.0 4.860403243099165 0.0 0.0 0.0 44.58243212332868" Properties=species:S:1:pos:R:3:tags:I:1:masses:R:1:momenta:R:3:forces:R:3 KEmax=31.022389213981967 iter=50063 volume=1216.1236359717223 set_wall=T ns_energy=-15.695744747321825 last_walked_iter_clone=49363 energy=-16.35854895814341 stress="0.020553994533279482 0.0009510546202249619 0.0012381867907383225 0.0009510546202249619 0.02257018680112492 -0.0017260181900848601 0.0012381867907383225 -0.0017260181900848601 0.01427770139734966" pbc="T T F"
H        1.40307756       0.81006721      20.00000000        3       1.00000000       0.00000000       0.00000000       0.00000000       0.00000000       0.00000000       0.00000000
H        4.20923268       0.81006721      20.00000000        3       1.00000000       0.00000000       0.00000000       0.00000000       0.00000000       0.00000000       0.00000000
H        0.00000000       3.24026883      20.00000000        3       1.00000000       0.00000000       0.00000000       0.00000000       0.00000000       0.00000000       0.00000000
H        2.80615512       3.24026883      20.00000000        3       1.00000000       0.00000000       0.00000000       0.00000000       0.00000000       0.00000000       0.00000000
H        0.00000000       1.62013441      22.29121606        2       1.00000000       0.00000000       0.00000000       0.00000000       0.00000000       0.00000000       0.00000000
H        2.80615512       1.62013441      22.29121606        2       1.00000000       0.00000000       0.00000000       0.00000000       0.00000000       0.00000000       0.00000000
H        1.40307756       4.05033604      22.29121606        2       1.00000000       0.00000000       0.00000000       0.00000000       0.00000000       0.00000000       0.00000000
H        4.20923268       4.05033604      22.29121606        2       1.00000000       0.00000000       0.00000000       0.00000000       0.00000000       0.00000000       0.00000000
H        0.00000000       0.00000000      24.58243212        1       1.00000000       0.00000000       0.00000000       0.00000000       0.00000000       0.00000000       0.00000000
H        2.80615512       0.00000000      24.58243212        1       1.00000000       0.00000000       0.00000000       0.00000000       0.00000000       0.00000000       0.00000000
H        1.40307756       2.43020162      24.58243212        1       1.00000000       0.00000000       0.00000000       0.00000000       0.00000000       0.00000000       0.00000000
H        4.20923268       2.43020162      24.58243212        1       1.00000000       0.00000000       0.00000000       0.00000000       0.00000000       0.00000000       0.00000000
H        5.54042859       1.59855519      31.33299845        0       1.00000000       0.18103476      -0.02703213       0.00883407      -0.30111838       0.04457405      -0.13332933
H        4.43223250       2.55025942      29.00513264        0       1.00000000      -0.07766131       0.15543770       0.12796348      -0.21942273      -0.14392343       0.70105915
H        4.10851937       3.81828286      31.74224616        0       1.00000000       0.07030035       0.13707164      -0.46235001       0.13749473       0.17305386      -0.24207695
H        3.26511662       0.11601925      29.14001567        0       1.00000000       0.09673485      -0.18401844       0.23000240       0.15508954       0.04519711       0.07317401
H        1.43983394       3.95383530      31.34767151        0       1.00000000       0.15797083      -0.06538366       0.17650170       0.19304588      -0.11728710      -0.21707023
H        0.51840974       0.11527680      28.95627148        0       1.00000000      -0.19069684       0.13920654      -0.23944490      -0.17935401       0.12729881       0.12146279
H        0.11880645       1.70423810      26.77155076        0       1.00000000      -0.00472049      -0.17144176       0.29095175      -0.03505050       0.54786742      -0.26671569
H        2.87779202       1.69576539      26.78779623        0       1.00000000       0.00644225      -0.00437418      -0.08107989      -0.28213562       0.17147874      -0.31293595
H        4.41246189       4.07377053      26.92896266        0       1.00000000      -0.06827811      -0.11522447       0.00532762       0.15035079       0.20865451       0.49362831
H        1.53990650       4.16904176      26.73651982        0       1.00000000      -0.10263082      -0.04792008       0.05114649       0.24245879      -0.15658872      -0.36934534
H        1.52882904       2.42125775      28.95477641        0       1.00000000       0.08757557      -0.11237268       0.03069273       0.28865360      -0.43317418      -0.00436608
H        2.65392566       1.51892529      31.24232312        0       1.00000000      -0.04762165       0.04384392       0.39695982      -0.13565942      -0.00520603      -0.14717419
24
Lattice="5.612310241546866 0.0 0.0 0.0 4.860403243099165 0.0 0.0 0.0 44.58243212332868" Properties=species:S:1:pos:R:3:tags:I:1:masses:R:1:momenta:R:3:forces:R:3 KEmax=31.022389213981967 iter=50063 volume=1216.1236359717223 set_wall=T ns_energy=-15.698288732526404 last_walked_iter_clone=49533 energy=-16.35854895814341 stress="0.020553994533279482 0.0009510546202249619 0.0012381867907383225 0.0009510546202249619 0.02257018680112492 -0.0017260181900848601 0.0012381867907383225 -0.0017260181900848601 0.01427770139734966" pbc="T T F"
H        1.40307756       0.81006721      20.00000000        3       1.00000000       0.00000000       0.00000000       0.00000000       0.00000000       0.00000000       0.00000000
H        4.20923268       0.81006721      20.00000000        3       1.00000000       0.00000000       0.00000000       0.00000000       0.00000000       0.00000000       0.00000000
H        0.00000000       3.24026883      20.00000000        3       1.00000000       0.00000000       0.00000000       0.00000000       0.00000000       0.00000000       0.00000000
H        2.80615512       3.24026883      20.00000000        3       1.00000000       0.00000000       0.00000000       0.00000000       0.00000000       0.00000000       0.00000000
H        0.00000000       1.62013441      22.29121606        2       1.00000000       0.00000000       0.00000000       0.00000000       0.00000000       0.00000000       0.00000000
H        2.80615512       1.62013441      22.29121606        2       1.00000000       0.00000000       0.00000000       0.00000000       0.00000000       0.00000000       0.00000000
H        1.40307756       4.05033604      22.29121606        2       1.00000000       0.00000000       0.00000000       0.00000000       0.00000000       0.00000000       0.00000000
H        4.20923268       4.05033604      22.29121606        2       1.00000000       0.00000000       0.00000000       0.00000000       0.00000000       0.00000000       0.00000000
H        0.00000000       0.00000000      24.58243212        1       1.00000000       0.00000000       0.00000000       0.00000000       0.00000000       0.00000000       0.00000000
H        2.80615512       0.00000000      24.58243212        1       1.00000000       0.00000000       0.00000000       0.00000000       0.00000000       0.00000000       0.00000000
H        1.40307756       2.43020162      24.58243212        1       1.00000000       0.00000000       0.00000000       0.00000000       0.00000000       0.00000000       0.00000000
H        4.20923268       2.43020162      24.58243212        1       1.00000000       0.00000000       0.00000000       0.00000000       0.00000000       0.00000000       0.00000000
H        1.37715591       4.03721925      31.38945123        0       1.00000000       0.08903807      -0.00445290       0.20994548      -0.30111838       0.04457405      -0.13332933
H        4.36399285       2.27954104      29.22521076        0       1.00000000       0.12690671      -0.22809169      -0.14684303      -0.21942273      -0.14392343       0.70105915
H        4.11355178       3.96144499      31.20752904        0       1.00000000       0.03487003       0.15215935      -0.16995389       0.13749473       0.17305386      -0.24207695
H        2.72391059       0.06282525      28.91624817        0       1.00000000       0.14477097      -0.17130555       0.33810551       0.15508954       0.04519711       0.07317401
H        2.62773459       1.58426487      31.32376298        0       1.00000000       0.01114894      -0.16862967      -0.09933007       0.19304588      -0.11728710      -0.21707023
H        5.64782901       4.91176244      28.93826449        0       1.00000000      -0.13910567       0.18971290       0.27684904      -0.17935401       0.12729881       0.12146279
H        3.01530226       3.26781587      26.97748438        0       1.00000000      -0.13680960      -0.00304187       0.16829749      -0.03505050       0.54786742      -0.26671569
H        0.04280214       3.36384155      26.75088245        0       1.00000000      -0.40396736      -0.24796348       0.14761256      -0.28213562       0.17147874      -0.31293595
H        1.38735068       0.84297002      26.69269891        0       1.00000000       0.02162229      -0.09938294      -0.08026483       0.15035079       0.20865451       0.49362831
H        4.18147569       0.91088164      26.75985136        0       1.00000000      -0.04732504       0.08263674      -0.00967301       0.24245879      -0.15658872      -0.36934534
H        1.49910608       2.43645060      29.08145364        0       1.00000000       0.22491985      -0.13511455      -0.12385814       0.28865360      -0.43317418      -0.00436608
H       -0.13148525       1.71262194      31.46566982        0       1.00000000      -0.34609388       0.09209002      -0.24533248      -0.13565942      -0.00520603      -0.14717419
24
Lattice="5.612310241546866 0.0 0.0 0.0 4.860403243099165 0.0 0.0 0.0 44.58243212332868" Properties=species:S:1:pos:R:3:tags:I:1:masses:R:1:momenta:R:3:forces:R:3 KEmax=31.022389213981967 iter=50063 volume=1216.1236359717223 set_wall=T ns_energy=-15.751544814712828 last_walked_iter_clone=49471 energy=-16.35854895814341 stress="0.020553994533279482 0.0009510546202249619 0.0012381867907383225 0.0009510546202249619 0.02257018680112492 -0.0017260181900848601 0.0012381867907383225 -0.0017260181900848601 0.01427770139734966" pbc="T T F"
H        1.40307756       0.81006721      20.00000000        3       1.00000000       0.00000000       0.00000000       0.00000000       0.00000000       0.00000000       0.00000000
H        4.20923268       0.81006721      20.00000000        3       1.00000000       0.00000000       0.00000000       0.00000000       0.00000000       0.00000000       0.00000000
H        0.00000000       3.24026883      20.00000000        3       1.00000000       0.00000000       0.00000000       0.00000000       0.00000000       0.00000000       0.00000000
H        2.80615512       3.24026883      20.00000000        3       1.00000000       0.00000000       0.00000000       0.00000000       0.00000000       0.00000000       0.00000000
H        0.00000000       1.62013441      22.29121606        2       1.00000000       0.00000000       0.00000000       0.00000000       0.00000000       0.00000000       0.00000000
H        2.80615512       1.62013441      22.29121606        2       1.00000000       0.00000000       0.00000000       0.00000000       0.00000000       0.00000000       0.00000000
H        1.40307756       4.05033604      22.29121606        2       1.00000000       0.00000000       0.00000000       0.00000000       0.00000000       0.00000000       0.00000000
H        4.20923268       4.05033604      22.29121606        2       1.00000000       0.00000000       0.00000000       0.00000000       0.00000000       0.00000000       0.00000000
H        0.00000000       0.00000000      24.58243212        1       1.00000000       0.00000000       0.00000000       0.00000000       0.00000000       0.00000000       0.00000000
H        2.80615512       0.00000000      24.58243212        1       1.00000000       0.00000000       0.00000000       0.00000000       0.00000000       0.00000000       0.00000000
H        1.40307756       2.43020162      24.58243212        1       1.00000000       0.00000000       0.00000000       0.00000000       0.00000000       0.00000000       0.00000000
H        4.20923268       2.43020162      24.58243212        1       1.00000000       0.00000000       0.00000000       0.00000000       0.00000000       0.00000000       0.00000000
H        1.43031261       0.91688821      31.55191330        0       1.00000000       0.15957749       0.35699650       0.04739591      -0.30111838       0.04457405      -0.13332933
H        3.01791803       1.60955260      28.98149604        0       1.00000000      -0.11004343       0.23054548      -0.16343679      -0.21942273      -0.14392343       0.70105915
H        5.75435818       3.42676314      31.32362008        0       1.00000000       0.12027694       0.08165222       0.22630000       0.13749473       0.17305386      -0.24207695
H        1.57000320       4.14055892      28.94137900        0       1.00000000       0.21004478      -0.07957023       0.01828966       0.15508954       0.04519711       0.07317401
H        2.86213197       3.42124864      31.35584908        0       1.00000000       0.36631828       0.21506946      -0.12236206       0.19304588      -0.11728710      -0.21707023
H        4.25656480       4.28533922      29.08231128        0       1.00000000       0.14258647       0.20385038      -0.03798580      -0.17935401       0.12729881       0.12146279
H        4.26465082       0.91955679      26.74498594        0       1.00000000      -0.16785064      -0.20817383       0.05689205      -0.03505050       0.54786742      -0.26671569
H        1.45375592       0.76289990      26.81869345        0       1.00000000      -0.06625132       0.33638085       0.05004612      -0.28213562       0.17147874      -0.31293595
H        2.87576449       3.31217244      26.64634902        0       1.00000000      -0.30434944      -0.07029920      -0.07698987       0.15035079       0.20865451       0.49362831
H       -0.00428966       3.20910618      26.81153982        0       1.00000000       0.05005144       0.26807196       0.19884133       0.24245879      -0.15658872      -0.36934534
H        0.12603763       1.66396197      29.06562166        0       1.00000000       0.15434997      -0.02042577       0.07747968       0.28865360      -0.43317418      -0.00436608
H        4.32184579       1.04954013      31.29414550        0       1.00000000      -0.14610516      -0.00122912       0.16465962      -0.13565942      -0.00520603      -0.14717419
24
Lattice="5.612310241546866 0.0 0.0 0.0 4.860403243099165 0.0 0.0 0.0 44.58243212332868" Properties=species:S:1:pos:R:3:tags:I:1:masses:R:1:momenta:R:3:forces:R:3 KEmax=31.022389213981967 iter=50063 volume=1216.1236359717223 set_wall=T ns_energy=-15.705916542872341 last_walked_iter_clone=49947 energy=-16.35854895814341 stress="0.020553994533279482 0.0009510546202249619 0.0012381867907383225 0.0009510546202249619 0.02257018680112492 -0.0017260181900848601 0.0012381867907383225 -0.0017260181900848601 0.01427770139734966" pbc="T T F"
H        1.40307756       0.81006721      20.00000000        3       1.00000000       0.00000000       0.00000000       0.00000000       0.00000000       0.00000000       0.00000000
H        4.20923268       0.81006721      20.00000000        3       1.00000000       0.00000000       0.00000000       0.00000000       0.00000000       0.00000000       0.00000000
H        0.00000000       3.24026883      20.00000000        3       1.00000000       0.00000000       0.00000000       0.00000000       0.00000000       0.00000000       0.00000000
H        2.80615512       3.24026883      20.00000000        3       1.00000000       0.00000000       0.00000000       0.00000000       0.00000000       0.00000000       0.00000000
H        0.00000000       1.62013441      22.29121606        2       1.00000000       0.00000000       0.00000000       0.00000000       0.00000000       0.00000000       0.00000000
H        2.80615512       1.62013441      22.29121606        2       1.00000000       0.00000000       0.00000000       0.00000000       0.00000000       0.00000000       0.00000000
H        1.40307756       4.05033604      22.29121606        2       1.00000000       0.00000000       0.00000000       0.00000000       0.00000000       0.00000000       0.00000000
H        4.20923268       4.05033604      22.29121606        2       1.00000000       0.00000000       0.00000000       0.00000000       0.00000000       0.00000000       0.00000000
H        0.00000000       0.00000000      24.58243212        1       1.00000000       0.00000000       0.00000000       0.00000000       0.00000000       0.00000000       0.00000000
H        2.80615512       0.00000000      24.58243212        1       1.00000000       0.00000000       0.00000000       0.00000000       0.00000000       0.00000000       0.00000000
H        1.40307756       2.43020162      24.58243212        1       1.00000000       0.00000000       0.00000000       0.00000000       0.00000000       0.00000000       0.00000000
H        4.20923268       2.43020162      24.58243212        1       1.00000000       0.00000000       0.00000000       0.00000000       0.00000000       0.00000000       0.00000000
H        2.61616585       1.88835073      31.57148187        0       1.00000000       0.15675056       0.14309847      -0.09769341      -0.30111838       0.04457405      -0.13332933
H        3.98699989       2.44201214      29.15411397        0       1.00000000      -0.18686940      -0.18667103       0.35763857      -0.21942273      -0.14392343       0.70105915
H        1.24212204       4.16110143      31.22282782        0       1.00000000       0.16727813      -0.00267302      -0.05559071       0.13749473       0.17305386      -0.24207695
H        2.66530376      -0.01429867      29.05522284        0       1.00000000      -0.31283525      -0.04248230       0.02117632       0.15508954       0.04519711       0.07317401
H        3.95899405       4.22477290      31.26298712        0       1.00000000       0.06266630       0.08733107      -0.15130984       0.19304588      -0.11728710      -0.21707023
H        5.39244816      -0.10920824      29.02483104        0       1.00000000       0.06595506       0.27878270      -0.30911954      -0.17935401       0.12729881       0.12146279
H        1.25664752       0.71684252      26.90577178        0       1.00000000      -0.12341778       0.21959935      -0.17748611      -0.03505050       0.54786742      -0.26671569
H        4.02859463       0.62048666      26.91741901        0       1.00000000      -0.17369559       0.14593552      -0.32851658      -0.28213562       0.17147874      -0.31293595
H        5.52324846       3.22522819      26.94130090        0       1.00000000       0.00074155       0.17243945      -0.14003135       0.15035079       0.20865451       0.49362831
H        2.70695140       3.05467698      26.94052990        0       1.00000000       0.20703498      -0.13531263       0.30897753       0.24245879      -0.15658872      -0.36934534
H        1.19809498       2.39077212      29.17282409        0       1.00000000       0.22852116      -0.32094300       0.05794603       0.28865360      -0.43317418      -0.00436608
H        5.30286701       1.61844247      31.28050207        0       1.00000000      -0.14685362      -0.09433695      -0.27952303      -0.13565942      -0.00520603      -0.14717419
24
Lattice="5.612310241546866 0.0 0.0 0.0 4.860403243099165 0.0 0.0 0.0 44.58243212332868" Properties=species:S:1:pos:R:3:tags:I:1:masses:R:1:momenta:R:3:forces:R:3 KEmax=31.022389213981967 iter=50063 volume=1216.1236359717223 set_wall=T ns_energy=-15.708327191135501 last_walked_iter_clone=49756 energy=-16.35854895814341 stress="0.020553994533279482 0.0009510546202249619 0.0012381867907383225 0.0009510546202249619 0.02257018680112492 -0.0017260181900848601 0.0012381867907383225 -0.0017260181900848601 0.01427770139734966" pbc="T T F"
H        1.40307756       0.81006721      20.00000000        3       1.00000000       0.00000000       0.00000000       0.00000000       0.00000000       0.00000000       0.00000000
H        4.20923268       0.81006721      20.00000000        3       1.00000000       0.00000000       0.00000000       0.00000000       0.00000000       0.00000000       0.00000000
H        0.00000000       3.24026883      20.00000000        3       1.00000000       0.00000000       0.00000000       0.00000000       0.00000000       0.00000000       0.00000000
H        2.80615512       3.24026883      20.00000000        3       1.00000000       0.00000000       0.00000000       0.00000000       0.00000000       0.00000000       0.00000000
H        0.00000000       1.62013441      22.29121606        2       1.00000000       0.00000000       0.00000000       0.00000000       0.00000000       0.00000000       0.00000000
H        2.80615512       1.62013441      22.29121606        2       1.00000000       0.00000000       0.00000000       0.00000000       0.00000000       0.00000000       0.00000000
H        1.40307756       4.05033604      22.29121606        2       1.00000000       0.00000000       0.00000000       0.00000000       0.00000000       0.00000000       0.00000000
H        4.20923268       4.05033604      22.29121606        2       1.00000000       0.00000000       0.00000000       0.00000000       0.00000000       0.00000000       0.00000000
H        0.00000000       0.00000000      24.58243212        1       1.00000000       0.00000000       0.00000000       0.00000000       0.00000000       0.00000000       0.00000000
H        2.80615512       0.00000000      24.58243212        1       1.00000000       0.00000000       0.00000000       0.00000000       0.00000000       0.00000000       0.00000000
H        1.40307756       2.43020162      24.58243212        1       1.00000000       0.00000000       0.00000000       0.00000000       0.00000000       0.00000000       0.00000000
H        4.20923268       2.43020162      24.58243212        1       1.00000000       0.00000000       0.00000000       0.00000000       0.00000000       0.00000000       0.00000000
H        4.18856830       4.26272247      29.07810337        0       1.00000000       0.29782204       0.00767361       0.10523771      -0.30111838       0.04457405      -0.13332933
H        5.49244332       3.42894643      31.40346960        0       1.00000000       0.09679113       0.12610105      -0.11610555      -0.21942273      -0.14392343       0.70105915
H        2.90772506       1.94001414      28.95678943        0       1.00000000       0.22091786       0.11632028      -0.02353208       0.13749473       0.17305386      -0.24207695
H        5.62103265       3.13642691      26.79680086        0       1.00000000       0.25824058      -0.14118827       0.00720510       0.15508954       0.04519711       0.07317401
H        2.82548822       3.45618193      31.30053074        0       1.00000000      -0.02161893      -0.07782437       0.15496436       0.19304588      -0.11728710      -0.21707023
H        1.42334330       4.17390186      28.95308299        0       1.00000000      -0.05157660       0.01625651       0.01439225      -0.17935401       0.12729881       0.12146279
H        4.15004027       1.03710237      31.29054159        0       1.00000000      -0.03790213      -0.00112247      -0.09133845      -0.03505050       0.54786742      -0.26671569
H        5.49846155       1.82998180      29.06140328        0       1.00000000       0.28441226       0.20635480       0.12856741      -0.28213562       0.17147874      -0.31293595
H        1.31931376       0.90713240      26.72593990        0       1.00000000       0.31720679       0.04621439       0.11047392       0.15035079       0.20865451       0.49362831
H        2.58399352       3.24853671      26.83986841        0       1.00000000      -0.05452066      -0.08216274       0.01171413       0.24245879      -0.15658872      -0.36934534
H        1.17906014       0.99411052      31.16958789        0       1.00000000       0.31922298       0.19341032      -0.12151649       0.28865360      -0.43317418      -0.00436608
H        4.13932774       0.66131308      26.90036681        0       1.00000000       0.16346959       0.25042407      -0.21567327      -0.13565942      -0.00520603      -0.14717419
24
Lattice="5.612310241546866 0.0 0.0 0.0 4.860403243099165 0.0 0.0 0.0 44.58243212332868" Properties=species:S:1:pos:R:3:tags:I:1:masses:R:1:momenta:R:3:forces:R:3 KEmax=31.022389213981967 iter=50063 volume=1216.1236359717223 set_wall=T ns_energy=-15.712917584222199 last_walked_iter_clone=49882 energy=-16.35854895814341 stress="0.020553994533279482 0.0009510546202249619 0.0012381867907383225 0.0009510546202249619 0.02257018680112492 -0.0017260181900848601 0.0012381867907383225 -0.0017260181900848601 0.01427770139734966" pbc="T T F"
H        1.40307756       0.81006721      20.00000000        3       1.00000000       0.00000000       0.00000000       0.00000000       0.00000000       0.00000000       0.00000000
H        4.20923268       0.81006721      20.00000000        3       1.00000000       0.00000000       0.00000000       0.00000000       0.00000000       0.00000000       0.00000000
H        0.00000000       3.24026883      20.00000000        3       1.00000000       0.00000000       0.00000000       0.00000000       0.00000000       0.00000000       0.00000000
H        2.80615512       3.24026883      20.00000000        3       1.00000000       0.00000000       0.00000000       0.00000000       0.00000000       0.00000000       0.00000000
H        0.00000000       1.62013441      22.29121606        2       1.00000000       0.00000000       0.00000000       0.00000000       0.00000000       0.00000000       0.00000000
H        2.80615512       1.62013441      22.29121606        2       1.00000000       0.00000000       0.00000000       0.00000000       0.00000000       0.00000000       0.00000000
H        1.40307756       4.05033604      22.29121606        2       1.00000000       0.00000000       0.00000000       0.00000000       0.00000000       0.00000000       0.00000000
H        4.20923268       4.05033604      22.29121606        2       1.00000000       0.00000000       0.00000000       0.00000000       0.00000000       0.00000000       0.00000000
H        0.00000000       0.00000000      24.58243212        1       1.00000000       0.00000000       0.00000000       0.00000000       0.00000000       0.00000000       0.00000000
H        2.80615512       0.00000000      24.58243212        1       1.00000000       0.00000000       0.00000000       0.00000000       0.00000000       0.00000000       0.00000000
H        1.40307756       2.43020162      24.58243212        1       1.00000000       0.00000000       0.00000000       0.00000000       0.00000000       0.00000000       0.00000000
H        4.20923268       2.43020162      24.58243212        1       1.00000000       0.00000000       0.00000000       0.00000000       0.00000000       0.00000000       0.00000000
H        0.16764503       1.91339327      31.53837155        0       1.00000000      -0.08692396      -0.20600971      -0.19850012      -0.30111838       0.04457405      -0.13332933
H        4.10360644       2.83881127      29.20967701        0       1.00000000       0.17887712       0.20945467       0.08310732      -0.21942273      -0.14392343       0.70105915
H        4.39130551       4.38295051      31.60112822        0       1.00000000      -0.00048145       0.03153463       0.27280016       0.13749473       0.17305386      -0.24207695
H        2.80290920       0.51901595      29.28942990        0       1.00000000      -0.23744429       0.26299851       0.02483168       0.15508954       0.04519711       0.07317401
H        1.53480371       4.32015309      31.40018938        0       1.00000000      -0.13738345      -0.08442636      -0.25047708       0.19304588      -0.11728710      -0.21707023
H        0.10328846       0.46265360      29.02293015        0       1.00000000      -0.02385811      -0.04924396      -0.05661299      -0.17935401       0.12729881       0.12146279
H        4.37927573       0.90109079      26.87227873        0       1.00000000      -0.14050781       0.06810428      -0.26153902      -0.03505050       0.54786742      -0.26671569
H        1.58060642       0.95218403      26.85380615        0       1.00000000       0.16906401       0.07261114       0.09097792      -0.28213562       0.17147874      -0.31293595
H        2.84915000       3.28402318      26.82777064        0       1.00000000      -0.23959265       0.07342797       0.25295797       0.15035079       0.20865451       0.49362831
H        0.16215839       3.48806361      26.80953220        0       1.00000000      -0.21982135      -0.09980218      -0.29448156       0.24245879      -0.15658872      -0.36934534
H        1.37633544       2.89980084      29.19737944        0       1.00000000       0.22719553       0.16199088      -0.34123467       0.28865360      -0.43317418      -0.00436608
H        2.97293474       1.92347762      31.48846294        0       1.00000000      -0.15383724       0.11095704       0.00368971      -0.13565942      -0.00520603      -0.14717419
24
Lattice="5.612310241546866 0.0 0.0 0.0 4.860403243099165 0.0 0.0 0.0 44.58243212332868" Properties=species:S:1:pos:R:3:tags:I:1:masses:R:1:momenta:R:3:forces:R:3 KEmax=31.022389213981967 iter=50063 volume=1216.1236359717223 set_wall=T ns_energy=-15.712168580880075 last_walked_iter_clone=49899 energy=-16.35854895814341 stress="0.020553994533279482 0.0009510546202249619 0.0012381867907383225 0.0009510546202249619 0.02257018680112492 -0.0017260181900848601 0.0012381867907383225 -0.0017260181900848601 0.01427770139734966" pbc="T T F"