24
Lattice="5.612310241546866 0.0 0.0 0.0 4.860403243099165 0.0 0.0 0.0 44.58243212332868" Properties=species:S:1:pos:R:3:tags:I:1:masses:R:1:momenta:R:3:forces:R:3 KEmax=31.022389213981967 iter=22877 volume=1216.1236359717223 set_wall=T ns_energy=-9.976494831466393 last_walked_iter_clone=22807 energy=-12.22025485515686 stress="0.01049062095863253 -0.0016460709453791581 0.0033390911542336026 -0.0016460709453791581 0.00995920403916991 -0.00027527672228603954 0.0033390911542336026 -0.00027527672228603954 0.009864844521615231" pbc="T T F"
H        1.40307756       0.81006721      20.00000000        3       1.00000000       0.00000000       0.00000000       0.00000000       0.00000000       0.00000000       0.00000000
H        4.20923268       0.81006721      20.00000000        3       1.00000000       0.00000000       0.00000000       0.00000000       0.00000000       0.00000000       0.00000000
H        0.00000000       3.24026883      20.00000000        3       1.00000000       0.00000000       0.00000000       0.00000000       0.00000000       0.00000000       0.00000000
H        2.80615512       3.24026883      20.00000000        3       1.00000000       0.00000000       0.00000000       0.00000000       0.00000000       0.00000000       0.00000000
H        0.00000000       1.62013441      22.29121606        2       1.00000000       0.00000000       0.00000000       0.00000000       0.00000000       0.00000000       0.00000000
H        2.80615512       1.62013441      22.29121606        2       1.00000000       0.00000000       0.00000000       0.00000000       0.00000000       0.00000000       0.00000000
H        1.40307756       4.05033604      22.29121606        2       1.00000000       0.00000000       0.00000000       0.00000000       0.00000000       0.00000000       0.00000000
H        4.20923268       4.05033604      22.29121606        2       1.00000000       0.00000000       0.00000000       0.00000000       0.00000000       0.00000000       0.00000000
H        0.00000000       0.00000000      24.58243212        1       1.00000000       0.00000000       0.00000000       0.00000000       0.00000000       0.00000000       0.00000000
H        2.80615512       0.00000000      24.58243212        1       1.00000000       0.00000000       0.00000000       0.00000000       0.00000000       0.00000000       0.00000000
H        1.40307756       2.43020162      24.58243212        1       1.00000000       0.00000000       0.00000000       0.00000000       0.00000000       0.00000000       0.00000000
H        4.20923268       2.43020162      24.58243212        1       1.00000000       0.00000000       0.00000000       0.00000000       0.00000000       0.00000000       0.00000000
H        5.12843679       1.95594839      30.28608081        0       1.00000000       0.32948481      -0.60690040       0.59670162      -0.17378601       0.26588728       0.02900143
H        4.77151531       4.64993445      26.95265263        0       1.00000000       0.41766474      -0.41168043       0.56403463      -0.36749479      -0.26594137       0.55177577
H        0.43687321       4.26461553      31.31238608        0       1.00000000      -0.36777556      -0.04957390      -0.09884930       0.06024583      -0.04826282       0.13321284
H        1.89333864       4.54760105      26.96072502        0       1.00000000       0.40027965       0.33369087       0.20457360       0.03996999       0.00387349       0.01051876
H        0.59291052       0.84103656      36.74095052        0       1.00000000      -0.23065076      -0.34540016       0.27443385       0.28282937      -0.09317573      -0.26404577
H        2.16308175       1.79667456      33.44720477        0       1.00000000       0.15942865       0.22235896      -0.09040342      -0.45938457      -0.09444515       0.15224988
H        0.37160769       2.01991190      27.86844984        0       1.00000000       0.89977335       0.22320714      -0.24817614       0.27680121      -0.11941145      -0.26770846
H        2.07761209       1.58692171      30.23733403        0       1.00000000      -0.09771131       0.30992097       0.01952045      -0.43671302       0.03742418       0.03208724
H        3.67867579       4.50729700      29.16827641        0       1.00000000       0.39514024       0.59307516       0.00975469      -0.09440657      -0.15003184      -0.26948057
H        1.29386738       3.36071088      35.30308275        0       1.00000000       0.27589050       0.19958706      -0.54880837       0.20102572       0.20203533       0.22929925
H        3.37840257       2.53756569      27.22767251        0       1.00000000       0.37307252      -0.00874908       0.53754541       0.37601948       0.12116011      -0.59840743
H        3.46990701       0.22107656      36.72446309        0       1.00000000      -0.33553185      -0.12133688       0.32305496      -0.01634178       0.01489356      -0.10308214
24
Lattice="5.612310241546866 0.0 0.0 0.0 4.860403243099165 0.0 0.0 0.0 44.58243212332868" Properties=species:S:1:pos:R:3:tags:I:1:masses:R:1:momenta:R:3:forces:R:3 KEmax=31.022389213981967 iter=22877 volume=1216.1236359717223 set_wall=T ns_energy=-9.956063862522285 last_walked_iter_clone=22567 energy=-12.22025485515686 stress="0.01049062095863253 -0.0016460709453791581 0.0033390911542336026 -0.0016460709453791581 0.00995920403916991 -0.00027527672228603954 0.0033390911542336026 -0.00027527672228603954 0.009864844521615231" pbc="T T F"
H        1.40307756       0.81006721      20.00000000        3       1.00000000       0.00000000       0.00000000       0.00000000       0.00000000       0.00000000       0.00000000
H        4.20923268       0.81006721      20.00000000        3       1.00000000       0.00000000       0.00000000       0.00000000       0.00000000       0.00000000       0.00000000
H        0.00000000       3.24026883      20.00000000        3       1.00000000       0.00000000       0.00000000       0.00000000       0.00000000       0.00000000       0.00000000
H        2.80615512       3.24026883      20.00000000        3       1.00000000       0.00000000       0.00000000       0.00000000       0.00000000       0.00000000       0.00000000
H        0.00000000       1.62013441      22.29121606        2       1.00000000       0.00000000       0.00000000       0.00000000       0.00000000       0.00000000       0.00000000
H        2.80615512       1.62013441      22.29121606        2       1.00000000       0.00000000       0.00000000       0.00000000       0.00000000       0.00000000       0.00000000
H        1.40307756       4.05033604      22.29121606        2       1.00000000       0.00000000       0.00000000       0.00000000       0.00000000       0.00000000       0.00000000
H        4.20923268       4.05033604      22.29121606        2       1.00000000       0.00000000       0.00000000       0.00000000       0.00000000       0.00000000       0.00000000
H        0.00000000       0.00000000      24.58243212        1       1.00000000       0.00000000       0.00000000       0.00000000       0.00000000       0.00000000       0.00000000
H        2.80615512       0.00000000      24.58243212        1       1.00000000       0.00000000       0.00000000       0.00000000       0.00000000       0.00000000       0.00000000
H        1.40307756       2.43020162      24.58243212        1       1.00000000       0.00000000       0.00000000       0.00000000       0.00000000       0.00000000       0.00000000
H        4.20923268       2.43020162      24.58243212        1       1.00000000       0.00000000       0.00000000       0.00000000       0.00000000       0.00000000       0.00000000
H        4.05456776       1.95290493      33.23900209        0       1.00000000       0.56237455      -0.23815187      -0.23330960      -0.17378601       0.26588728       0.02900143
H        5.58316597       0.94904988      26.95399090        0       1.00000000       0.34989463       0.14037902      -0.46003411      -0.36749479      -0.26594137       0.55177577
H        4.91007825       1.41937626      30.08618856        0       1.00000000      -0.51424159      -0.14059106       0.46925665       0.06024583      -0.04826282       0.13321284
H        1.65615775       5.78401087      33.03534559        0       1.00000000      -0.17777362       0.82955953       0.18649086       0.03996999       0.00387349       0.01051876
H        1.42480845       3.98845681      39.65792947        0       1.00000000      -0.01714708       0.19686018      -0.29569949       0.28282937      -0.09317573      -0.26404577
H        1.12362616       2.91578836      28.45908376        0       1.00000000      -0.30876911      -0.17997852      -0.20139203      -0.45938457      -0.09444515       0.15224988
H        2.77241295       1.03082452      26.94409858        0       1.00000000       0.33875192       0.01112445      -0.02801832       0.27680121      -0.11941145      -0.26770846
H        1.81437966      -0.02939945      36.05494857        0       1.00000000      -0.15872959      -0.11893733      -0.59675449      -0.43671302       0.03742418       0.03208724
H        4.12845049       3.37322632      27.24745742        0       1.00000000       0.11234296       0.13828495       0.48210697      -0.09440657      -0.15003184      -0.26948057
H        1.95745702       4.63310792      30.23183233        0       1.00000000       0.34027297       0.38692135       0.31410423       0.20102572       0.20203533       0.22929925
H        5.23588132       3.36960890      35.53962832        0       1.00000000       0.16728244      -0.42637503      -0.18740649       0.37601948       0.12116011      -0.59840743
H        4.98962270       3.93458384      31.87828848        0       1.00000000      -0.56334474      -0.00526253       0.12394664      -0.01634178       0.01489356      -0.10308214
24
Lattice="5.612310241546866 0.0 0.0 0.0 4.860403243099165 0.0 0.0 0.0 44.58243212332868" Properties=species:S:1:pos:R:3:tags:I:1:masses:R:1:momenta:R:3:forces:R:3 KEmax=31.022389213981967 iter=22877 volume=1216.1236359717223 set_wall=T ns_energy=-10.191954161142421 last_walked_iter_clone=22690 energy=-12.22025485515686 stress="0.01049062095863253 -0.0016460709453791581 0.0033390911542336026 -0.0016460709453791581 0.00995920403916991 -0.00027527672228603954 0.0033390911542336026 -0.00027527672228603954 0.009864844521615231" pbc="T T F"
H        1.40307756       0.81006721      20.00000000        3       1.00000000       0.00000000       0.00000000       0.00000000       0.00000000       0.00000000       0.00000000
H        4.20923268       0.81006721      20.00000000        3       1.00000000       0.00000000       0.00000000       0.00000000       0.00000000       0.00000000       0.00000000
H        0.00000000       3.24026883      20.00000000        3       1.00000000       0.00000000       0.00000000       0.00000000       0.00000000       0.00000000       0.00000000
H        2.80615512       3.24026883      20.00000000        3       1.00000000       0.00000000       0.00000000       0.00000000       0.00000000       0.00000000       0.00000000
H        0.00000000       1.62013441      22.29121606        2       1.00000000       0.00000000       0.00000000       0.00000000       0.00000000       0.00000000       0.00000000
H        2.80615512       1.62013441      22.29121606        2       1.00000000       0.00000000       0.00000000       0.00000000       0.00000000       0.00000000       0.00000000
H        1.40307756       4.05033604      22.29121606        2       1.00000000       0.00000000       0.00000000       0.00000000       0.00000000       0.00000000       0.00000000
H        4.20923268       4.05033604      22.29121606        2       1.00000000       0.00000000       0.00000000       0.00000000       0.00000000       0.00000000       0.00000000
H        0.00000000       0.00000000      24.58243212        1       1.00000000       0.00000000       0.00000000       0.00000000       0.00000000       0.00000000       0.00000000
H        2.80615512       0.00000000      24.58243212        1       1.00000000       0.00000000       0.00000000       0.00000000       0.00000000       0.00000000       0.00000000
H        1.40307756       2.43020162      24.58243212        1       1.00000000       0.00000000       0.00000000       0.00000000       0.00000000       0.00000000       0.00000000
H        4.20923268       2.43020162      24.58243212        1       1.00000000       0.00000000       0.00000000       0.00000000       0.00000000       0.00000000       0.00000000
H        0.50303562       2.67408037      41.05200112        0       1.00000000      -0.57431178      -0.08474703       0.30928553      -0.17378601       0.26588728       0.02900143
H        5.35062364       1.10802655      38.82621350        0       1.00000000       0.65929300       0.46632265       0.19929785      -0.36749479      -0.26594137       0.55177577
H        3.57200153       3.48122803      40.23852897        0       1.00000000      -0.12057416      -0.30657594      -0.23417726       0.06024583      -0.04826282       0.13321284
H        2.06926840       1.97503319      32.27802978        0       1.00000000      -0.40943456       0.21336112      -0.28206981       0.03996999       0.00387349       0.01051876
H        1.63583256       3.64924868      30.12564237        0       1.00000000      -0.75749774      -0.10131492      -1.04665271       0.28282937      -0.09317573      -0.26404577
H        3.16222038       3.17671249      26.74145270        0       1.00000000      -0.82071737       0.47874321       0.01857052      -0.45938457      -0.09444515       0.15224988
H        4.29525950       3.57640983      30.56753148        0       1.00000000      -0.19899123       0.28962923       0.21076336       0.27680121      -0.11941145      -0.26770846
H        0.30493545       1.45601079      29.88226556        0       1.00000000       0.15860977      -0.06049223      -0.23981558      -0.43671302       0.03742418       0.03208724
H        4.59000271       0.92215116      26.77906675        0       1.00000000      -0.41742579      -0.14416366      -0.28679154      -0.09440657      -0.15003184      -0.26948057
H        1.91146347       0.71913601      26.84318190        0       1.00000000      -0.02313928       0.15007156       0.53311285       0.20102572       0.20203533       0.22929925
H        0.11162084       3.30770097      27.54720734        0       1.00000000       0.43612145      -0.02050771       0.19509211       0.37601948       0.12116011      -0.59840743
H        3.09964381       1.08049100      29.70997509        0       1.00000000       0.17496319       0.60602303      -0.05714036      -0.01634178       0.01489356      -0.10308214
24
Lattice="5.612310241546866 0.0 0.0 0.0 4.860403243099165 0.0 0.0 0.0 44.58243212332868" Properties=species:S:1:pos:R:3:tags:I:1:masses:R:1:momenta:R:3:forces:R:3 KEmax=31.022389213981967 iter=22877 volume=1216.1236359717223 set_wall=T ns_energy=-10.061239825573226 last_walked_iter_clone=22595 energy=-12.22025485515686 stress="0.01049062095863253 -0.0016460709453791581 0.0033390911542336026 -0.0016460709453791581 0.00995920403916991 -0.00027527672228603954 0.0033390911542336026 -0.00027527672228603954 0.009864844521615231" pbc="T T F"
H        1.40307756       0.81006721      20.00000000        3       1.00000000       0.00000000       0.00000000       0.00000000       0.00000000       0.00000000       0.00000000
H        4.20923268       0.81006721      20.00000000        3       1.00000000       0.00000000       0.00000000       0.00000000       0.00000000       0.00000000       0.00000000
H        0.00000000       3.24026883      20.00000000        3       1.00000000       0.00000000       0.00000000       0.00000000       0.00000000       0.00000000       0.00000000
H        2.80615512       3.24026883      20.00000000        3       1.00000000       0.00000000       0.00000000       0.00000000       0.00000000       0.00000000       0.00000000
H        0.00000000       1.62013441      22.29121606        2       1.00000000       0.00000000       0.00000000       0.00000000       0.00000000       0.00000000       0.00000000
H        2.80615512       1.62013441      22.29121606        2       1.00000000       0.00000000       0.00000000       0.00000000       0.00000000       0.00000000       0.00000000
H        1.40307756       4.05033604      22.29121606        2       1.00000000       0.00000000       0.00000000       0.00000000       0.00000000       0.00000000       0.00000000
H        4.20923268       4.05033604      22.29121606        2       1.00000000       0.00000000       0.00000000       0.00000000       0.00000000       0.00000000       0.00000000
H        0.00000000       0.00000000      24.58243212        1       1.00000000       0.00000000       0.00000000       0.00000000       0.00000000       0.00000000       0.00000000
H        2.80615512       0.00000000      24.58243212        1       1.00000000       0.00000000       0.00000000       0.00000000       0.00000000       0.00000000       0.00000000
H        1.40307756       2.43020162      24.58243212        1       1.00000000       0.00000000       0.00000000       0.00000000       0.00000000       0.00000000       0.00000000
H        4.20923268       2.43020162      24.58243212        1       1.00000000       0.00000000       0.00000000       0.00000000       0.00000000       0.00000000       0.00000000
H        1.35080480       0.55362032      32.71338625        0       1.00000000       0.32822642      -0.43560589      -0.68499967      -0.17378601       0.26588728       0.02900143
H        3.32855705       3.47460724      26.72875675        0       1.00000000      -0.30027477      -0.11122319      -0.63281510      -0.36749479      -0.26594137       0.55177577
H        3.65818641       2.83707390      29.22828872        0       1.00000000       0.78566325      -0.41398159      -0.02377228       0.06024583      -0.04826282       0.13321284
H        2.67057159       1.27836429      35.41139658        0       1.00000000       0.12433560       0.75645766      -0.19361298       0.03996999       0.00387349       0.01051876
H        4.75965729       3.62208906      31.54978625        0       1.00000000      -0.56055997      -0.05639568       0.05106358       0.28282937      -0.09317573      -0.26404577
H        0.45037107       3.82245891      35.49302767        0       1.00000000       0.80441500       0.83038406      -0.12761263      -0.45938457      -0.09444515       0.15224988
H        1.64630003       3.90853323      30.39461411        0       1.00000000       0.05010845       0.21311683      -0.00950868       0.27680121      -0.11941145      -0.26770846
H        4.28394495       1.19828519      32.95244094        0       1.00000000       0.20111740      -0.06802410      -0.48961800      -0.43671302       0.03742418       0.03208724
H        4.46332258       0.96284288      27.35969711        0       1.00000000       0.25324809      -0.34718763      -0.01594901      -0.09440657      -0.15003184      -0.26948057
H        3.68008488       3.47126753      34.10041236        0       1.00000000       0.17516602       0.30342787       0.15331068       0.20102572       0.20203533       0.22929925
H        5.49344570       1.28020548      30.62764875        0       1.00000000       0.13626468       0.05499017       0.21442277       0.37601948       0.12116011      -0.59840743
H        1.64119988       1.14123035      28.29784332        0       1.00000000      -0.49079818      -0.27690507      -0.17636658      -0.01634178       0.01489356      -0.10308214
24
Lattice="5.612310241546866 0.0 0.0 0.0 4.860403243099165 0.0 0.0 0.0 44.58243212332868" Properties=species:S:1:pos:R:3:tags:I:1:masses:R:1:momenta:R:3:forces:R:3 KEmax=31.022389213981967 iter=22877 volume=1216.1236359717223 set_wall=T ns_energy=-9.947681814834466 last_walked_iter_clone=22861 energy=-12.22025485515686 stress="0.01049062095863253 -0.0016460709453791581 0.0033390911542336026 -0.0016460709453791581 0.00995920403916991 -0.00027527672228603954 0.0033390911542336026 -0.00027527672228603954 0.009864844521615231" pbc="T T F"
H        1.40307756       0.81006721      20.00000000        3       1.00000000       0.00000000       0.00000000       0.00000000       0.00000000       0.00000000       0.00000000
H        4.20923268       0.81006721      20.00000000        3       1.00000000       0.00000000       0.00000000       0.00000000       0.00000000       0.00000000       0.00000000
H        0.00000000       3.24026883      20.00000000        3       1.00000000       0.00000000       0.00000000       0.00000000       0.00000000       0.00000000       0.00000000
H        2.80615512       3.24026883      20.00000000        3       1.00000000       0.00000000       0.00000000       0.00000000       0.00000000       0.00000000       0.00000000
H        0.00000000       1.62013441      22.29121606        2       1.00000000       0.00000000       0.00000000       0.00000000       0.00000000       0.00000000       0.00000000
H        2.80615512       1.62013441      22.29121606        2       1.00000000       0.00000000       0.00000000       0.00000000       0.00000000       0.00000000       0.00000000
H        1.40307756       4.05033604      22.29121606        2       1.00000000       0.00000000       0.00000000       0.00000000       0.00000000       0.00000000       0.00000000
H        4.20923268       4.05033604      22.29121606        2       1.00000000       0.00000000       0.00000000       0.00000000       0.00000000       0.00000000       0.00000000
H        0.00000000       0.00000000      24.58243212        1       1.00000000       0.00000000       0.00000000       0.00000000       0.00000000       0.00000000       0.00000000
H        2.80615512       0.00000000      24.58243212        1       1.00000000       0.00000000       0.00000000       0.00000000       0.00000000       0.00000000       0.00000000
H        1.40307756       2.43020162      24.58243212        1       1.00000000       0.00000000       0.00000000       0.00000000       0.00000000       0.00000000       0.00000000
H        4.20923268       2.43020162      24.58243212        1       1.00000000       0.00000000       0.00000000       0.00000000       0.00000000       0.00000000       0.00000000
H        1.43967728       4.15539866      29.71093842        0       1.00000000       0.15065527       0.47934402       0.09456198      -0.17378601       0.26588728       0.02900143
H        1.49044532       0.30045042      33.25205689        0       1.00000000      -0.09508693       0.29221060       0.12516183      -0.36749479      -0.26594137       0.55177577
H        1.37161300       2.23982789      37.67323283        0       1.00000000      -0.23911241       0.15636257       0.08512854       0.06024583      -0.04826282       0.13321284
H        3.97942286       4.32105868      29.87781835        0       1.00000000       0.62544355      -0.48033039      -0.28320086       0.03996999       0.00387349       0.01051876
H        4.28620025       0.65868395      33.64583045        0       1.00000000      -0.93748492      -0.25799301      -0.24228999       0.28282937      -0.09317573      -0.26404577
H        5.50850283       1.27874827      27.48003287        0       1.00000000      -0.22108564       0.24260712       0.38361332      -0.45938457      -0.09444515       0.15224988
H        2.09388368       4.53365548      26.97893730        0       1.00000000       0.29922843       0.11342332       0.13567520       0.27680121      -0.11941145      -0.26770846
H        3.41116178       4.74665845      35.91950892        0       1.00000000       0.57060332      -0.07178235       0.32215196      -0.43671302       0.03742418       0.03208724
H        2.20826890       1.51241914      30.95496191        0       1.00000000      -0.41679202      -0.11841270       0.49857618      -0.09440657      -0.15003184      -0.26948057
H       -0.03527693       2.46058285      32.49284533        0       1.00000000      -0.28005668       0.15364240      -0.11716798       0.20102572       0.20203533       0.22929925
H        4.94698706       1.83645360      30.00021170        0       1.00000000      -0.27339113      -0.55907087       0.21923252       0.37601948       0.12116011      -0.59840743
H        2.85453233       2.81465465      33.34417062        0       1.00000000      -0.41952555      -0.11791362       0.15608102      -0.01634178       0.01489356      -0.10308214
24
Lattice="5.612310241546866 0.0 0.0 0.0 4.860403243099165 0.0 0.0 0.0 44.58243212332868" Properties=species:S:1:pos:R:3:tags:I:1:masses:R:1:momenta:R:3:forces:R:3 KEmax=31.022389213981967 iter=22877 volume=1216.1236359717223 set_wall=T ns_energy=-9.907677692915478 last_walked_iter_clone=22676 energy=-12.22025485515686 stress="0.01049062095863253 -0.0016460709453791581 0.0033390911542336026 -0.0016460709453791581 0.00995920403916991 -0.00027527672228603954 0.0033390911542336026 -0.00027527672228603954 0.009864844521615231" pbc="T T F"
H        1.40307756       0.81006721      20.00000000        3       1.00000000       0.00000000       0.00000000       0.00000000       0.00000000       0.00000000       0.00000000
H        4.20923268       0.81006721      20.00000000        3       1.00000000       0.00000000       0.00000000       0.00000000       0.00000000       0.00000000       0.00000000
H        0.00000000       3.24026883      20.00000000        3       1.00000000       0.00000000       0.00000000       0.00000000       0.00000000       0.00000000       0.00000000
H        2.80615512       3.24026883      20.00000000        3       1.00000000       0.00000000       0.00000000       0.00000000       0.00000000       0.00000000       0.00000000
H        0.00000000       1.62013441      22.29121606        2       1.00000000       0.00000000       0.00000000       0.00000000       0.00000000       0.00000000       0.00000000
H        2.80615512       1.62013441      22.29121606        2       1.00000000       0.00000000       0.00000000       0.00000000       0.00000000       0.00000000       0.00000000
H        1.40307756       4.05033604      22.29121606        2       1.00000000       0.00000000       0.00000000       0.00000000       0.00000000       0.00000000       0.00000000
H        4.20923268       4.05033604      22.29121606        2       1.00000000       0.00000000       0.00000000       0.00000000       0.00000000       0.00000000       0.00000000
H        0.00000000       0.00000000      24.58243212        1       1.00000000       0.00000000       0.00000000       0.00000000       0.00000000       0.00000000       0.00000000
H        2.80615512       0.00000000      24.58243212        1       1.00000000       0.00000000       0.00000000       0.00000000       0.00000000       0.00000000       0.00000000
H        1.40307756       2.43020162      24.58243212        1       1.00000000       0.00000000       0.00000000       0.00000000       0.00000000       0.00000000       0.00000000
H        4.20923268       2.43020162      24.58243212        1       1.00000000       0.00000000       0.00000000       0.00000000       0.00000000       0.00000000       0.00000000
H        2.58990470       3.47873964      26.82136972        0       1.00000000      -0.05078501       0.26353097       0.38665794      -0.17378601       0.26588728       0.02900143
H        5.38718357       1.44656524      36.92979105        0       1.00000000       0.00853674      -0.63995419       0.61006331      -0.36749479      -0.26594137       0.55177577
H        0.50569572       1.12756908      30.73505896        0       1.00000000      -0.06913347      -0.08974772       0.46396077       0.06024583      -0.04826282       0.13321284
H        1.78370988       2.83777203      40.07016946        0       1.00000000       0.10550858      -0.04300501      -0.26300934       0.03996999       0.00387349       0.01051876
H        5.43060831       3.27824604      27.09611715        0       1.00000000       0.34544510      -0.27175767       0.48475208       0.28282937      -0.09317573      -0.26404577
H        5.01373352       3.11354690      35.00583716        0       1.00000000      -0.15557472      -0.61454776      -0.22970607      -0.45938457      -0.09444515       0.15224988
H        4.86507364       3.89593869      30.67701685        0       1.00000000      -0.10202359       0.38524584       0.34150820       0.27680121      -0.11941145      -0.26770846
H        3.47239326       3.86189099      38.05685107        0       1.00000000       0.09692978       0.24517617      -0.27451075      -0.43671302       0.03742418       0.03208724
H        1.19747886       0.79090448      27.43275612        0       1.00000000       0.40635449       0.20347226      -0.21515799      -0.09440657      -0.15003184      -0.26948057
H        0.67838908       4.32852429      38.14859724        0       1.00000000       0.06512942      -0.35475664      -0.09873693       0.20102572       0.20203533       0.22929925
H        4.48429063       1.06484995      28.54063561        0       1.00000000      -0.30157648      -0.50537072      -0.40224142       0.37601948       0.12116011      -0.59840743
H        1.80268073       3.56294766      29.82401913        0       1.00000000      -0.30103262      -0.34969816      -0.19162997      -0.01634178       0.01489356      -0.10308214
24