18
Lattice="5.612310241546866 0.0 0.0 0.0 4.860403243099165 0.0 0.0 0.0 44.58243212332868" Properties=species:S:1:pos:R:3:tags:I:1:masses:R:1:momenta:R:3:forces:R:3 KEmax=23.26679191048647 iter=113869 volume=1216.1236359717223 ns_energy=-11.637341369351544 last_walked_iter_clone=113614 energy=-11.637341369349175 stress="0.022582849712230634 -7.920228851612287e-10 1.570599163632572e-08 -7.920228851612287e-10 0.02269711922224753 1.511766656437575e-08 1.570599163632572e-08 1.511766656437575e-08 0.012324275895204564" pbc="T T F"
H        1.40307756       0.81006721      20.00000000        3       1.00000000       0.00000000       0.00000000       0.00000000       0.00000000       0.00000000       0.00000000
H        4.20923268       0.81006721      20.00000000        3       1.00000000       0.00000000       0.00000000       0.00000000       0.00000000       0.00000000       0.00000000
H        0.00000000       3.24026883      20.00000000        3       1.00000000       0.00000000       0.00000000       0.00000000       0.00000000       0.00000000       0.00000000
H        2.80615512       3.24026883      20.00000000        3       1.00000000       0.00000000       0.00000000       0.00000000       0.00000000       0.00000000       0.00000000
H        0.00000000       1.62013441      22.29121606        2       1.00000000       0.00000000       0.00000000       0.00000000       0.00000000       0.00000000       0.00000000
H        2.80615512       1.62013441      22.29121606        2       1.00000000       0.00000000       0.00000000       0.00000000       0.00000000       0.00000000       0.00000000
H        1.40307756       4.05033604      22.29121606        2       1.00000000       0.00000000       0.00000000       0.00000000       0.00000000       0.00000000       0.00000000
H        4.20923268       4.05033604      22.29121606        2       1.00000000       0.00000000       0.00000000       0.00000000       0.00000000       0.00000000       0.00000000
H        0.00000000       0.00000000      24.58243212        1       1.00000000       0.00000000       0.00000000       0.00000000       0.00000000       0.00000000       0.00000000
H        2.80615512       0.00000000      24.58243212        1       1.00000000       0.00000000       0.00000000       0.00000000       0.00000000       0.00000000       0.00000000
H        1.40307756       2.43020162      24.58243212        1       1.00000000       0.00000000       0.00000000       0.00000000       0.00000000       0.00000000       0.00000000
H        4.20923268       2.43020162      24.58243212        1       1.00000000       0.00000000       0.00000000       0.00000000       0.00000000       0.00000000       0.00000000
H        2.80615473       1.62013467      17.77136724        0       1.00000000       0.00000083       0.00000026       0.00000099      -0.00000035       0.00000094      -0.00000178
H        1.40307670       4.05033597      17.77136763        0       1.00000000       0.00000015      -0.00000074      -0.00000037      -0.00000036      -0.00000325      -0.00000084
H        4.19930999       0.81021495      26.81076994        0       1.00000000      -0.00000105       0.00000065      -0.00000016      -0.00000067       0.00000037      -0.00000042
H        5.61230966       1.62013425      17.77136720        0       1.00000000       0.00000035       0.00000019      -0.00000017       0.00000075      -0.00000240      -0.00000060
H        0.00992372       3.24041665      26.81077049        0       1.00000000      -0.00000125       0.00000016      -0.00000035       0.00000056      -0.00000215       0.00000186
H        4.20923217       4.05033632      17.77136692        0       1.00000000      -0.00000099       0.00000104      -0.00000095       0.00000159       0.00000421       0.00000049
18
Lattice="5.612310241546866 0.0 0.0 0.0 4.860403243099165 0.0 0.0 0.0 44.58243212332868" Properties=species:S:1:pos:R:3:tags:I:1:masses:R:1:momenta:R:3:forces:R:3 KEmax=23.26679191048647 iter=113869 volume=1216.1236359717223 ns_energy=-11.637341369351525 last_walked_iter_clone=113860 energy=-11.637341369349175 stress="0.022582849712230634 -7.920228851612287e-10 1.570599163632572e-08 -7.920228851612287e-10 0.02269711922224753 1.511766656437575e-08 1.570599163632572e-08 1.511766656437575e-08 0.012324275895204564" pbc="T T F"
H        1.40307756       0.81006721      20.00000000        3       1.00000000       0.00000000       0.00000000       0.00000000       0.00000000       0.00000000       0.00000000
H        4.20923268       0.81006721      20.00000000        3       1.00000000       0.00000000       0.00000000       0.00000000       0.00000000       0.00000000       0.00000000
H        0.00000000       3.24026883      20.00000000        3       1.00000000       0.00000000       0.00000000       0.00000000       0.00000000       0.00000000       0.00000000
H        2.80615512       3.24026883      20.00000000        3       1.00000000       0.00000000       0.00000000       0.00000000       0.00000000       0.00000000       0.00000000
H        0.00000000       1.62013441      22.29121606        2       1.00000000       0.00000000       0.00000000       0.00000000       0.00000000       0.00000000       0.00000000
H        2.80615512       1.62013441      22.29121606        2       1.00000000       0.00000000       0.00000000       0.00000000       0.00000000       0.00000000       0.00000000
H        1.40307756       4.05033604      22.29121606        2       1.00000000       0.00000000       0.00000000       0.00000000       0.00000000       0.00000000       0.00000000
H        4.20923268       4.05033604      22.29121606        2       1.00000000       0.00000000       0.00000000       0.00000000       0.00000000       0.00000000       0.00000000
H        0.00000000       0.00000000      24.58243212        1       1.00000000       0.00000000       0.00000000       0.00000000       0.00000000       0.00000000       0.00000000
H        2.80615512       0.00000000      24.58243212        1       1.00000000       0.00000000       0.00000000       0.00000000       0.00000000       0.00000000       0.00000000
H        1.40307756       2.43020162      24.58243212        1       1.00000000       0.00000000       0.00000000       0.00000000       0.00000000       0.00000000       0.00000000
H        4.20923268       2.43020162      24.58243212        1       1.00000000       0.00000000       0.00000000       0.00000000       0.00000000       0.00000000       0.00000000
H        2.80615534       1.62013489      17.77136714        0       1.00000000       0.00000126       0.00000080      -0.00000020      -0.00000035       0.00000094      -0.00000178
H        1.40307700       4.05033707      17.77136740        0       1.00000000      -0.00000103      -0.00000085      -0.00000057      -0.00000036      -0.00000325      -0.00000084
H        4.19930983       0.81021427      26.81077030        0       1.00000000       0.00000052      -0.00000128      -0.00000021      -0.00000067       0.00000037      -0.00000042
H        0.00000013       1.62013555      17.77136745        0       1.00000000       0.00000045       0.00000004       0.00000035       0.00000075      -0.00000240      -0.00000060
H        0.00992380       3.24041550      26.81077047        0       1.00000000       0.00000055      -0.00000063      -0.00000010       0.00000056      -0.00000215       0.00000186
H        4.20923229       4.05033650      17.77136644        0       1.00000000       0.00000070       0.00000013       0.00000005       0.00000159       0.00000421       0.00000049
18
Lattice="5.612310241546866 0.0 0.0 0.0 4.860403243099165 0.0 0.0 0.0 44.58243212332868" Properties=species:S:1:pos:R:3:tags:I:1:masses:R:1:momenta:R:3:forces:R:3 KEmax=23.26679191048647 iter=113869 volume=1216.1236359717223 ns_energy=-11.637341369351669 last_walked_iter_clone=113848 energy=-11.637341369349175 stress="0.022582849712230634 -7.920228851612287e-10 1.570599163632572e-08 -7.920228851612287e-10 0.02269711922224753 1.511766656437575e-08 1.570599163632572e-08 1.511766656437575e-08 0.012324275895204564" pbc="T T F"
H        1.40307756       0.81006721      20.00000000        3       1.00000000       0.00000000       0.00000000       0.00000000       0.00000000       0.00000000       0.00000000
H        4.20923268       0.81006721      20.00000000        3       1.00000000       0.00000000       0.00000000       0.00000000       0.00000000       0.00000000       0.00000000
H        0.00000000       3.24026883      20.00000000        3       1.00000000       0.00000000       0.00000000       0.00000000       0.00000000       0.00000000       0.00000000
H        2.80615512       3.24026883      20.00000000        3       1.00000000       0.00000000       0.00000000       0.00000000       0.00000000       0.00000000       0.00000000
H        0.00000000       1.62013441      22.29121606        2       1.00000000       0.00000000       0.00000000       0.00000000       0.00000000       0.00000000       0.00000000
H        2.80615512       1.62013441      22.29121606        2       1.00000000       0.00000000       0.00000000       0.00000000       0.00000000       0.00000000       0.00000000
H        1.40307756       4.05033604      22.29121606        2       1.00000000       0.00000000       0.00000000       0.00000000       0.00000000       0.00000000       0.00000000
H        4.20923268       4.05033604      22.29121606        2       1.00000000       0.00000000       0.00000000       0.00000000       0.00000000       0.00000000       0.00000000
H        0.00000000       0.00000000      24.58243212        1       1.00000000       0.00000000       0.00000000       0.00000000       0.00000000       0.00000000       0.00000000
H        2.80615512       0.00000000      24.58243212        1       1.00000000       0.00000000       0.00000000       0.00000000       0.00000000       0.00000000       0.00000000
H        1.40307756       2.43020162      24.58243212        1       1.00000000       0.00000000       0.00000000       0.00000000       0.00000000       0.00000000       0.00000000
H        4.20923268       2.43020162      24.58243212        1       1.00000000       0.00000000       0.00000000       0.00000000       0.00000000       0.00000000       0.00000000
H        2.80615449       1.62013457      17.77136710        0       1.00000000       0.00000055       0.00000087      -0.00000013      -0.00000035       0.00000094      -0.00000178
H        1.40307803       4.05033583      17.77136770        0       1.00000000      -0.00000031       0.00000034      -0.00000005      -0.00000036      -0.00000325      -0.00000084
H        4.19930873       0.81021335      26.81077052        0       1.00000000      -0.00000037      -0.00000162      -0.00000016      -0.00000067       0.00000037      -0.00000042
H       -0.00000081       1.62013429      17.77136727        0       1.00000000       0.00000146      -0.00000005      -0.00000008       0.00000075      -0.00000240      -0.00000060
H        0.00992428       3.24041530      26.81077082        0       1.00000000      -0.00000083      -0.00000072       0.00000042       0.00000056      -0.00000215       0.00000186
H        4.20923242       4.05033641      17.77136707        0       1.00000000      -0.00000007       0.00000019      -0.00000092       0.00000159       0.00000421       0.00000049
18
Lattice="5.612310241546866 0.0 0.0 0.0 4.860403243099165 0.0 0.0 0.0 44.58243212332868" Properties=species:S:1:pos:R:3:tags:I:1:masses:R:1:momenta:R:3:forces:R:3 KEmax=23.26679191048647 iter=113869 volume=1216.1236359717223 ns_energy=-11.637341369351459 last_walked_iter_clone=112931 energy=-11.637341369349175 stress="0.022582849712230634 -7.920228851612287e-10 1.570599163632572e-08 -7.920228851612287e-10 0.02269711922224753 1.511766656437575e-08 1.570599163632572e-08 1.511766656437575e-08 0.012324275895204564" pbc="T T F"
H        1.40307756       0.81006721      20.00000000        3       1.00000000       0.00000000       0.00000000       0.00000000       0.00000000       0.00000000       0.00000000
H        4.20923268       0.81006721      20.00000000        3       1.00000000       0.00000000       0.00000000       0.00000000       0.00000000       0.00000000       0.00000000
H        0.00000000       3.24026883      20.00000000        3       1.00000000       0.00000000       0.00000000       0.00000000       0.00000000       0.00000000       0.00000000
H        2.80615512       3.24026883      20.00000000        3       1.00000000       0.00000000       0.00000000       0.00000000       0.00000000       0.00000000       0.00000000
H        0.00000000       1.62013441      22.29121606        2       1.00000000       0.00000000       0.00000000       0.00000000       0.00000000       0.00000000       0.00000000
H        2.80615512       1.62013441      22.29121606        2       1.00000000       0.00000000       0.00000000       0.00000000       0.00000000       0.00000000       0.00000000
H        1.40307756       4.05033604      22.29121606        2       1.00000000       0.00000000       0.00000000       0.00000000       0.00000000       0.00000000       0.00000000
H        4.20923268       4.05033604      22.29121606        2       1.00000000       0.00000000       0.00000000       0.00000000       0.00000000       0.00000000       0.00000000
H        0.00000000       0.00000000      24.58243212        1       1.00000000       0.00000000       0.00000000       0.00000000       0.00000000       0.00000000       0.00000000
H        2.80615512       0.00000000      24.58243212        1       1.00000000       0.00000000       0.00000000       0.00000000       0.00000000       0.00000000       0.00000000
H        1.40307756       2.43020162      24.58243212        1       1.00000000       0.00000000       0.00000000       0.00000000       0.00000000       0.00000000       0.00000000
H        4.20923268       2.43020162      24.58243212        1       1.00000000       0.00000000       0.00000000       0.00000000       0.00000000       0.00000000       0.00000000
H        2.80615528       1.62013397      17.77136728        0       1.00000000       0.00000153       0.00000125      -0.00000018      -0.00000035       0.00000094      -0.00000178
H        1.40307805       4.05033632      17.77136707        0       1.00000000      -0.00000090       0.00000004      -0.00000052      -0.00000036      -0.00000325      -0.00000084
H        4.19930938       0.81021335      26.81077032        0       1.00000000      -0.00000012       0.00000047      -0.00000034      -0.00000067       0.00000037      -0.00000042
H        5.61231028       1.62013383      17.77136728        0       1.00000000       0.00000111      -0.00000044      -0.00000054       0.00000075      -0.00000240      -0.00000060
H        0.00992303       3.24041524      26.81076995        0       1.00000000      -0.00000092       0.00000002       0.00000110       0.00000056      -0.00000215       0.00000186
H        4.20923323       4.05033557      17.77136738        0       1.00000000      -0.00000022       0.00000062       0.00000037       0.00000159       0.00000421       0.00000049
18
Lattice="5.612310241546866 0.0 0.0 0.0 4.860403243099165 0.0 0.0 0.0 44.58243212332868" Properties=species:S:1:pos:R:3:tags:I:1:masses:R:1:momenta:R:3:forces:R:3 KEmax=23.26679191048647 iter=113869 volume=1216.1236359717223 ns_energy=-11.63734136935141 last_walked_iter_clone=113547 energy=-11.637341369349175 stress="0.022582849712230634 -7.920228851612287e-10 1.570599163632572e-08 -7.920228851612287e-10 0.02269711922224753 1.511766656437575e-08 1.570599163632572e-08 1.511766656437575e-08 0.012324275895204564" pbc="T T F"
H        1.40307756       0.81006721      20.00000000        3       1.00000000       0.00000000       0.00000000       0.00000000       0.00000000       0.00000000       0.00000000
H        4.20923268       0.81006721      20.00000000        3       1.00000000       0.00000000       0.00000000       0.00000000       0.00000000       0.00000000       0.00000000
H        0.00000000       3.24026883      20.00000000        3       1.00000000       0.00000000       0.00000000       0.00000000       0.00000000       0.00000000       0.00000000
H        2.80615512       3.24026883      20.00000000        3       1.00000000       0.00000000       0.00000000       0.00000000       0.00000000       0.00000000       0.00000000
H        0.00000000       1.62013441      22.29121606        2       1.00000000       0.00000000       0.00000000       0.00000000       0.00000000       0.00000000       0.00000000
H        2.80615512       1.62013441      22.29121606        2       1.00000000       0.00000000       0.00000000       0.00000000       0.00000000       0.00000000       0.00000000
H        1.40307756       4.05033604      22.29121606        2       1.00000000       0.00000000       0.00000000       0.00000000       0.00000000       0.00000000       0.00000000
H        4.20923268       4.05033604      22.29121606        2       1.00000000       0.00000000       0.00000000       0.00000000       0.00000000       0.00000000       0.00000000
H        0.00000000       0.00000000      24.58243212        1       1.00000000       0.00000000       0.00000000       0.00000000       0.00000000       0.00000000       0.00000000
H        2.80615512       0.00000000      24.58243212        1       1.00000000       0.00000000       0.00000000       0.00000000       0.00000000       0.00000000       0.00000000
H        1.40307756       2.43020162      24.58243212        1       1.00000000       0.00000000       0.00000000       0.00000000       0.00000000       0.00000000       0.00000000
H        4.20923268       2.43020162      24.58243212        1       1.00000000       0.00000000       0.00000000       0.00000000       0.00000000       0.00000000       0.00000000
H        2.80615497       1.62013471      17.77136744        0       1.00000000       0.00000024       0.00000078       0.00000068      -0.00000035       0.00000094      -0.00000178
H        1.40307780       4.05033676      17.77136752        0       1.00000000      -0.00000050      -0.00000034       0.00000079      -0.00000036      -0.00000325      -0.00000084
H        4.19930864       0.81021371      26.81077027        0       1.00000000      -0.00000028       0.00000054       0.00000026      -0.00000067       0.00000037      -0.00000042
H        5.61231049       1.62013481      17.77136648        0       1.00000000      -0.00000051       0.00000030      -0.00000006       0.00000075      -0.00000240      -0.00000060
H        0.00992117       3.24041483      26.81077082        0       1.00000000      -0.00000057      -0.00000013      -0.00000016       0.00000056      -0.00000215       0.00000186
H        4.20923298       4.05033663      17.77136628        0       1.00000000      -0.00000008       0.00000022      -0.00000079       0.00000159       0.00000421       0.00000049
18
Lattice="5.612310241546866 0.0 0.0 0.0 4.860403243099165 0.0 0.0 0.0 44.58243212332868" Properties=species:S:1:pos:R:3:tags:I:1:masses:R:1:momenta:R:3:forces:R:3 KEmax=23.26679191048647 iter=113869 volume=1216.1236359717223 ns_energy=-11.637341369351414 last_walked_iter_clone=112389 energy=-11.637341369349175 stress="0.022582849712230634 -7.920228851612287e-10 1.570599163632572e-08 -7.920228851612287e-10 0.02269711922224753 1.511766656437575e-08 1.570599163632572e-08 1.511766656437575e-08 0.012324275895204564" pbc="T T F"
H        1.40307756       0.81006721      20.00000000        3       1.00000000       0.00000000       0.00000000       0.00000000       0.00000000       0.00000000       0.00000000
H        4.20923268       0.81006721      20.00000000        3       1.00000000       0.00000000       0.00000000       0.00000000       0.00000000       0.00000000       0.00000000
H        0.00000000       3.24026883      20.00000000        3       1.00000000       0.00000000       0.00000000       0.00000000       0.00000000       0.00000000       0.00000000
H        2.80615512       3.24026883      20.00000000        3       1.00000000       0.00000000       0.00000000       0.00000000       0.00000000       0.00000000       0.00000000
H        0.00000000       1.62013441      22.29121606        2       1.00000000       0.00000000       0.00000000       0.00000000       0.00000000       0.00000000       0.00000000
H        2.80615512       1.62013441      22.29121606        2       1.00000000       0.00000000       0.00000000       0.00000000       0.00000000       0.00000000       0.00000000
H        1.40307756       4.05033604      22.29121606        2       1.00000000       0.00000000       0.00000000       0.00000000       0.00000000       0.00000000       0.00000000
H        4.20923268       4.05033604      22.29121606        2       1.00000000       0.00000000       0.00000000       0.00000000       0.00000000       0.00000000       0.00000000
H        0.00000000       0.00000000      24.58243212        1       1.00000000       0.00000000       0.00000000       0.00000000       0.00000000       0.00000000       0.00000000
H        2.80615512       0.00000000      24.58243212        1       1.00000000       0.00000000       0.00000000       0.00000000       0.00000000       0.00000000       0.00000000
H        1.40307756       2.43020162      24.58243212        1       1.00000000       0.00000000       0.00000000       0.00000000       0.00000000       0.00000000       0.00000000
H        4.20923268       2.43020162      24.58243212        1       1.00000000       0.00000000       0.00000000       0.00000000       0.00000000       0.00000000       0.00000000
H        2.80615432       1.62013425      17.77136718        0       1.00000000       0.00000118      -0.00000160      -0.00000044      -0.00000035       0.00000094      -0.00000178
H        1.40307770       4.05033625      17.77136771        0       1.00000000       0.00000006       0.00000060      -0.00000088      -0.00000036      -0.00000325      -0.00000084
H        4.19931061       0.81021405      26.81077065        0       1.00000000      -0.00000041      -0.00000067      -0.00000045      -0.00000067       0.00000037      -0.00000042
H       -0.00000033       1.62013406      17.77136708        0       1.00000000       0.00000070       0.00000037       0.00000112       0.00000075      -0.00000240      -0.00000060
H        0.00992408       3.24041585      26.81077081        0       1.00000000       0.00000064      -0.00000034       0.00000007       0.00000056      -0.00000215       0.00000186
H        4.20923293       4.05033587      17.77136707        0       1.00000000       0.00000042       0.00000076       0.00000027       0.00000159       0.00000421       0.00000049
18
Lattice="5.612310241546866 0.0 0.0 0.0 4.860403243099165 0.0 0.0 0.0 44.58243212332868" Properties=species:S:1:pos:R:3:tags:I:1:masses:R:1:momenta:R:3:forces:R:3 KEmax=23.26679191048647 iter=113869 volume=1216.1236359717223 ns_energy=-11.637341369351557 last_walked_iter_clone=113540 energy=-11.637341369349175 stress="0.022582849712230634 -7.920228851612287e-10 1.570599163632572e-08 -7.920228851612287e-10 0.02269711922224753 1.511766656437575e-08 1.570599163632572e-08 1.511766656437575e-08 0.012324275895204564" pbc="T T F"
H        1.40307756       0.81006721      20.00000000        3       1.00000000       0.00000000       0.00000000       0.00000000       0.00000000       0.00000000       0.00000000
H        4.20923268       0.81006721      20.00000000        3       1.00000000       0.00000000       0.00000000       0.00000000       0.00000000       0.00000000       0.00000000
H        0.00000000       3.24026883      20.00000000        3       1.00000000       0.00000000       0.00000000       0.00000000       0.00000000       0.00000000       0.00000000
H        2.80615512       3.24026883      20.00000000        3       1.00000000       0.00000000       0.00000000       0.00000000       0.00000000       0.00000000       0.00000000
H        0.00000000       1.62013441      22.29121606        2       1.00000000       0.00000000       0.00000000       0.00000000       0.00000000       0.00000000       0.00000000
H        2.80615512       1.62013441      22.29121606        2       1.00000000       0.00000000       0.00000000       0.00000000       0.00000000       0.00000000       0.00000000
H        1.40307756       4.05033604      22.29121606        2       1.00000000       0.00000000       0.00000000       0.00000000       0.00000000       0.00000000       0.00000000
H        4.20923268       4.05033604      22.29121606        2       1.00000000       0.00000000       0.00000000       0.00000000       0.00000000       0.00000000       0.00000000
H        0.00000000       0.00000000      24.58243212        1       1.00000000       0.00000000       0.00000000       0.00000000       0.00000000       0.00000000       0.00000000
H        2.80615512       0.00000000      24.58243212        1       1.00000000       0.00000000       0.00000000       0.00000000       0.00000000       0.00000000       0.00000000
H        1.40307756       2.43020162      24.58243212        1       1.00000000       0.00000000       0.00000000       0.00000000       0.00000000       0.00000000       0.00000000
H        4.20923268       2.43020162      24.58243212        1       1.00000000       0.00000000       0.00000000       0.00000000       0.00000000       0.00000000       0.00000000
H        2.80615569       1.62013467      17.77136709        0       1.00000000      -0.00000013       0.00000104       0.00000077      -0.00000035       0.00000094      -0.00000178
H        1.40307830       4.05033593      17.77136704        0       1.00000000      -0.00000081       0.00000098      -0.00000024      -0.00000036      -0.00000325      -0.00000084
H        4.19930979       0.81021358      26.81077104        0       1.00000000       0.00000138      -0.00000047      -0.00000125      -0.00000067       0.00000037      -0.00000042
H        0.00000070       1.62013439      17.77136740        0       1.00000000       0.00000032      -0.00000035       0.00000075       0.00000075      -0.00000240      -0.00000060
H        0.00992286       3.24041521      26.81077022        0       1.00000000       0.00000103       0.00000121       0.00000004       0.00000056      -0.00000215       0.00000186
H        4.20923320       4.05033609      17.77136739        0       1.00000000       0.00000017      -0.00000029      -0.00000061       0.00000159       0.00000421       0.00000049
18
Lattice="5.612310241546866 0.0 0.0 0.0 4.860403243099165 0.0 0.0 0.0 44.58243212332868" Properties=species:S:1:pos:R:3:tags:I:1:masses:R:1:momenta:R:3:forces:R:3 KEmax=23.26679191048647 iter=113869 volume=1216.1236359717223 ns_energy=-11.637341369351416 last_walked_iter_clone=112145 energy=-11.637341369349175 stress="0.022582849712230634 -7.920228851612287e-10 1.570599163632572e-08 -7.920228851612287e-10 0.02269711922224753 1.511766656437575e-08 1.570599163632572e-08 1.511766656437575e-08 0.012324275895204564" pbc="T T F"
H        1.40307756       0.81006721      20.00000000        3       1.00000000       0.00000000       0.00000000       0.00000000       0.00000000       0.00000000       0.00000000
H        4.20923268       0.81006721      20.00000000        3       1.00000000       0.00000000       0.00000000       0.00000000       0.00000000       0.00000000       0.00000000
H        0.00000000       3.24026883      20.00000000        3       1.00000000       0.00000000       0.00000000       0.00000000       0.00000000       0.00000000       0.00000000
H        2.80615512       3.24026883      20.00000000        3       1.00000000       0.00000000       0.00000000       0.00000000       0.00000000       0.00000000       0.00000000
H        0.00000000       1.62013441      22.29121606        2       1.00000000       0.00000000       0.00000000       0.00000000       0.00000000       0.00000000       0.00000000
H        2.80615512       1.62013441      22.29121606        2       1.00000000       0.00000000       0.00000000       0.00000000       0.00000000       0.00000000       0.00000000
H        1.40307756       4.05033604      22.29121606        2       1.00000000       0.00000000       0.00000000       0.00000000       0.00000000       0.00000000       0.00000000
H        4.20923268       4.05033604      22.29121606        2       1.00000000       0.00000000       0.00000000       0.00000000       0.00000000       0.00000000       0.00000000
H        0.00000000       0.00000000      24.58243212        1       1.00000000       0.00000000       0.00000000       0.00000000       0.00000000       0.00000000       0.00000000
H        2.80615512       0.00000000      24.58243212        1       1.00000000       0.00000000       0.00000000       0.00000000       0.00000000       0.00000000       0.00000000
H        1.40307756       2.43020162      24.58243212        1       1.00000000       0.00000000       0.00000000       0.00000000       0.00000000       0.00000000       0.00000000
H        4.20923268       2.43020162      24.58243212        1       1.00000000       0.00000000       0.00000000       0.00000000       0.00000000       0.00000000       0.00000000
H        2.80615509       1.62013362      17.77136641        0       1.00000000      -0.00000096       0.00000008      -0.00000006      -0.00000035       0.00000094      -0.00000178
H        1.40307738       4.05033550      17.77136729        0       1.00000000      -0.00000064       0.00000072       0.00000098      -0.00000036      -0.00000325      -0.00000084
H        4.19930832       0.81021361      26.81077026        0       1.00000000      -0.00000028       0.00000059       0.00000117      -0.00000067       0.00000037      -0.00000042