18
Lattice="5.612310241546866 0.0 0.0 0.0 4.860403243099165 0.0 0.0 0.0 44.58243212332868" Properties=species:S:1:pos:R:3:tags:I:1:masses:R:1:momenta:R:3:forces:R:3 KEmax=23.26679191048647 iter=119999 volume=1216.1236359717223 ns_energy=-11.637341369352278 last_walked_iter_clone=119381 energy=-11.637340619213917 stress="0.02258283241413586 -8.966794591325583e-09 -2.2905360003447265e-09 -8.966794591325583e-09 0.0226971481621029 2.936536546131097e-10 -2.2905360003447265e-09 2.936536546131097e-10 0.0123243761667682" pbc="T T F"
H        1.40307756       0.81006721      20.00000000        3       1.00000000       0.00000000       0.00000000       0.00000000       0.00000000       0.00000000       0.00000000
H        4.20923268       0.81006721      20.00000000        3       1.00000000       0.00000000       0.00000000       0.00000000       0.00000000       0.00000000       0.00000000
H        0.00000000       3.24026883      20.00000000        3       1.00000000       0.00000000       0.00000000       0.00000000       0.00000000       0.00000000       0.00000000
H        2.80615512       3.24026883      20.00000000        3       1.00000000       0.00000000       0.00000000       0.00000000       0.00000000       0.00000000       0.00000000
H        0.00000000       1.62013441      22.29121606        2       1.00000000       0.00000000       0.00000000       0.00000000       0.00000000       0.00000000       0.00000000
H        2.80615512       1.62013441      22.29121606        2       1.00000000       0.00000000       0.00000000       0.00000000       0.00000000       0.00000000       0.00000000
H        1.40307756       4.05033604      22.29121606        2       1.00000000       0.00000000       0.00000000       0.00000000       0.00000000       0.00000000       0.00000000
H        4.20923268       4.05033604      22.29121606        2       1.00000000       0.00000000       0.00000000       0.00000000       0.00000000       0.00000000       0.00000000
H        0.00000000       0.00000000      24.58243212        1       1.00000000       0.00000000       0.00000000       0.00000000       0.00000000       0.00000000       0.00000000
H        2.80615512       0.00000000      24.58243212        1       1.00000000       0.00000000       0.00000000       0.00000000       0.00000000       0.00000000       0.00000000
H        1.40307756       2.43020162      24.58243212        1       1.00000000       0.00000000       0.00000000       0.00000000       0.00000000       0.00000000       0.00000000
H        4.20923268       2.43020162      24.58243212        1       1.00000000       0.00000000       0.00000000       0.00000000       0.00000000       0.00000000       0.00000000
H        2.80615503       1.62013415      17.77136658        0       1.00000000       0.00000051      -0.00000024      -0.00000031       0.00007404       0.00062247       0.00000200
H        1.40307741       4.05033526      17.77136697        0       1.00000000      -0.00000025      -0.00000150      -0.00000034       0.00176126      -0.00062112       0.00000160
H        4.19930831       0.81021355      26.81077038        0       1.00000000      -0.00000005      -0.00000026       0.00000003       0.00000021      -0.00000415      -0.00000007
H       -0.00000005       1.62013366      17.77136723        0       1.00000000       0.00000005      -0.00000153      -0.00000066      -0.00007371       0.00067741       0.00000414
H        0.00992393       3.24041556      26.81077032        0       1.00000000      -0.00000085       0.00000018       0.00000108      -0.00000126       0.00000393      -0.00000137
H        4.20923276       4.05033583      17.77136706        0       1.00000000      -0.00000069      -0.00000078      -0.00000037      -0.00176289      -0.00067933      -0.00000189
18
Lattice="5.612310241546866 0.0 0.0 0.0 4.860403243099165 0.0 0.0 0.0 44.58243212332868" Properties=species:S:1:pos:R:3:tags:I:1:masses:R:1:momenta:R:3:forces:R:3 KEmax=23.26679191048647 iter=119999 volume=1216.1236359717223 ns_energy=-11.63734136935253 last_walked_iter_clone=119256 energy=-11.637340619213917 stress="0.02258283241413586 -8.966794591325583e-09 -2.2905360003447265e-09 -8.966794591325583e-09 0.0226971481621029 2.936536546131097e-10 -2.2905360003447265e-09 2.936536546131097e-10 0.0123243761667682" pbc="T T F"
H        1.40307756       0.81006721      20.00000000        3       1.00000000       0.00000000       0.00000000       0.00000000       0.00000000       0.00000000       0.00000000
H        4.20923268       0.81006721      20.00000000        3       1.00000000       0.00000000       0.00000000       0.00000000       0.00000000       0.00000000       0.00000000
H        0.00000000       3.24026883      20.00000000        3       1.00000000       0.00000000       0.00000000       0.00000000       0.00000000       0.00000000       0.00000000
H        2.80615512       3.24026883      20.00000000        3       1.00000000       0.00000000       0.00000000       0.00000000       0.00000000       0.00000000       0.00000000
H        0.00000000       1.62013441      22.29121606        2       1.00000000       0.00000000       0.00000000       0.00000000       0.00000000       0.00000000       0.00000000
H        2.80615512       1.62013441      22.29121606        2       1.00000000       0.00000000       0.00000000       0.00000000       0.00000000       0.00000000       0.00000000
H        1.40307756       4.05033604      22.29121606        2       1.00000000       0.00000000       0.00000000       0.00000000       0.00000000       0.00000000       0.00000000
H        4.20923268       4.05033604      22.29121606        2       1.00000000       0.00000000       0.00000000       0.00000000       0.00000000       0.00000000       0.00000000
H        0.00000000       0.00000000      24.58243212        1       1.00000000       0.00000000       0.00000000       0.00000000       0.00000000       0.00000000       0.00000000
H        2.80615512       0.00000000      24.58243212        1       1.00000000       0.00000000       0.00000000       0.00000000       0.00000000       0.00000000       0.00000000
H        1.40307756       2.43020162      24.58243212        1       1.00000000       0.00000000       0.00000000       0.00000000       0.00000000       0.00000000       0.00000000
H        4.20923268       2.43020162      24.58243212        1       1.00000000       0.00000000       0.00000000       0.00000000       0.00000000       0.00000000       0.00000000
H        2.80615561       1.62013413      17.77136700        0       1.00000000      -0.00000015      -0.00000119      -0.00000076       0.00007404       0.00062247       0.00000200
H        1.40307829       4.05033599      17.77136724        0       1.00000000      -0.00000068      -0.00000091      -0.00000005       0.00176126      -0.00062112       0.00000160
H        4.19930968       0.81021425      26.81077063        0       1.00000000       0.00000043      -0.00000123      -0.00000104       0.00000021      -0.00000415      -0.00000007
H        5.61231052       1.62013389      17.77136724        0       1.00000000       0.00000071      -0.00000010       0.00000014      -0.00007371       0.00067741       0.00000414
H        0.00992387       3.24041522      26.81077061        0       1.00000000      -0.00000056       0.00000003      -0.00000068      -0.00000126       0.00000393      -0.00000137
H        4.20923296       4.05033568      17.77136660        0       1.00000000       0.00000029       0.00000077      -0.00000089      -0.00176289      -0.00067933      -0.00000189
18
Lattice="5.612310241546866 0.0 0.0 0.0 4.860403243099165 0.0 0.0 0.0 44.58243212332868" Properties=species:S:1:pos:R:3:tags:I:1:masses:R:1:momenta:R:3:forces:R:3 KEmax=23.26679191048647 iter=119999 volume=1216.1236359717223 ns_energy=-11.637341369352354 last_walked_iter_clone=117543 energy=-11.637340619213917 stress="0.02258283241413586 -8.966794591325583e-09 -2.2905360003447265e-09 -8.966794591325583e-09 0.0226971481621029 2.936536546131097e-10 -2.2905360003447265e-09 2.936536546131097e-10 0.0123243761667682" pbc="T T F"
H        1.40307756       0.81006721      20.00000000        3       1.00000000       0.00000000       0.00000000       0.00000000       0.00000000       0.00000000       0.00000000
H        4.20923268       0.81006721      20.00000000        3       1.00000000       0.00000000       0.00000000       0.00000000       0.00000000       0.00000000       0.00000000
H        0.00000000       3.24026883      20.00000000        3       1.00000000       0.00000000       0.00000000       0.00000000       0.00000000       0.00000000       0.00000000
H        2.80615512       3.24026883      20.00000000        3       1.00000000       0.00000000       0.00000000       0.00000000       0.00000000       0.00000000       0.00000000
H        0.00000000       1.62013441      22.29121606        2       1.00000000       0.00000000       0.00000000       0.00000000       0.00000000       0.00000000       0.00000000
H        2.80615512       1.62013441      22.29121606        2       1.00000000       0.00000000       0.00000000       0.00000000       0.00000000       0.00000000       0.00000000
H        1.40307756       4.05033604      22.29121606        2       1.00000000       0.00000000       0.00000000       0.00000000       0.00000000       0.00000000       0.00000000
H        4.20923268       4.05033604      22.29121606        2       1.00000000       0.00000000       0.00000000       0.00000000       0.00000000       0.00000000       0.00000000
H        0.00000000       0.00000000      24.58243212        1       1.00000000       0.00000000       0.00000000       0.00000000       0.00000000       0.00000000       0.00000000
H        2.80615512       0.00000000      24.58243212        1       1.00000000       0.00000000       0.00000000       0.00000000       0.00000000       0.00000000       0.00000000
H        1.40307756       2.43020162      24.58243212        1       1.00000000       0.00000000       0.00000000       0.00000000       0.00000000       0.00000000       0.00000000
H        4.20923268       2.43020162      24.58243212        1       1.00000000       0.00000000       0.00000000       0.00000000       0.00000000       0.00000000       0.00000000
H        2.80615440       1.62013489      17.77136721        0       1.00000000       0.00000046      -0.00000027       0.00000088       0.00007404       0.00062247       0.00000200
H        1.40307715       4.05033642      17.77136673        0       1.00000000      -0.00000103      -0.00000116      -0.00000065       0.00176126      -0.00062112       0.00000160
H        4.19930880       0.81021392      26.81077103        0       1.00000000       0.00000059      -0.00000076       0.00000061       0.00000021      -0.00000415      -0.00000007
H        5.61230946       1.62013457      17.77136770        0       1.00000000      -0.00000003      -0.00000015       0.00000042      -0.00007371       0.00067741       0.00000414
H        0.00992324       3.24041585      26.81077086        0       1.00000000      -0.00000088       0.00000062      -0.00000009      -0.00000126       0.00000393      -0.00000137
H        4.20923185       4.05033670      17.77136678        0       1.00000000       0.00000026       0.00000111       0.00000058      -0.00176289      -0.00067933      -0.00000189
18
Lattice="5.612310241546866 0.0 0.0 0.0 4.860403243099165 0.0 0.0 0.0 44.58243212332868" Properties=species:S:1:pos:R:3:tags:I:1:masses:R:1:momenta:R:3:forces:R:3 KEmax=23.26679191048647 iter=119999 volume=1216.1236359717223 ns_energy=-11.63734136935236 last_walked_iter_clone=118904 energy=-11.637340619213917 stress="0.02258283241413586 -8.966794591325583e-09 -2.2905360003447265e-09 -8.966794591325583e-09 0.0226971481621029 2.936536546131097e-10 -2.2905360003447265e-09 2.936536546131097e-10 0.0123243761667682" pbc="T T F"
H        1.40307756       0.81006721      20.00000000        3       1.00000000       0.00000000       0.00000000       0.00000000       0.00000000       0.00000000       0.00000000
H        4.20923268       0.81006721      20.00000000        3       1.00000000       0.00000000       0.00000000       0.00000000       0.00000000       0.00000000       0.00000000
H        0.00000000       3.24026883      20.00000000        3       1.00000000       0.00000000       0.00000000       0.00000000       0.00000000       0.00000000       0.00000000
H        2.80615512       3.24026883      20.00000000        3       1.00000000       0.00000000       0.00000000       0.00000000       0.00000000       0.00000000       0.00000000
H        0.00000000       1.62013441      22.29121606        2       1.00000000       0.00000000       0.00000000       0.00000000       0.00000000       0.00000000       0.00000000
H        2.80615512       1.62013441      22.29121606        2       1.00000000       0.00000000       0.00000000       0.00000000       0.00000000       0.00000000       0.00000000
H        1.40307756       4.05033604      22.29121606        2       1.00000000       0.00000000       0.00000000       0.00000000       0.00000000       0.00000000       0.00000000
H        4.20923268       4.05033604      22.29121606        2       1.00000000       0.00000000       0.00000000       0.00000000       0.00000000       0.00000000       0.00000000
H        0.00000000       0.00000000      24.58243212        1       1.00000000       0.00000000       0.00000000       0.00000000       0.00000000       0.00000000       0.00000000
H        2.80615512       0.00000000      24.58243212        1       1.00000000       0.00000000       0.00000000       0.00000000       0.00000000       0.00000000       0.00000000
H        1.40307756       2.43020162      24.58243212        1       1.00000000       0.00000000       0.00000000       0.00000000       0.00000000       0.00000000       0.00000000
H        4.20923268       2.43020162      24.58243212        1       1.00000000       0.00000000       0.00000000       0.00000000       0.00000000       0.00000000       0.00000000
H        2.80615512       1.62013473      17.77136636        0       1.00000000      -0.00000077       0.00000128      -0.00000051       0.00007404       0.00062247       0.00000200
H        1.40307808       4.05033648      17.77136691        0       1.00000000       0.00000071       0.00000071      -0.00000017       0.00176126      -0.00062112       0.00000160
H        4.19930842       0.81021398      26.81077010        0       1.00000000       0.00000036       0.00000070       0.00000029       0.00000021      -0.00000415      -0.00000007
H        5.61230996       1.62013469      17.77136711        0       1.00000000      -0.00000048      -0.00000111      -0.00000055      -0.00007371       0.00067741       0.00000414
H        0.00992289       3.24041500      26.81077064        0       1.00000000      -0.00000047      -0.00000048       0.00000051      -0.00000126       0.00000393      -0.00000137
H        4.20923263       4.05033583      17.77136670        0       1.00000000      -0.00000017      -0.00000035      -0.00000040      -0.00176289      -0.00067933      -0.00000189
18
Lattice="5.612310241546866 0.0 0.0 0.0 4.860403243099165 0.0 0.0 0.0 44.58243212332868" Properties=species:S:1:pos:R:3:tags:I:1:masses:R:1:momenta:R:3:forces:R:3 KEmax=23.26679191048647 iter=119999 volume=1216.1236359717223 ns_energy=-11.637341369352344 last_walked_iter_clone=118787 energy=-11.637340619213917 stress="0.02258283241413586 -8.966794591325583e-09 -2.2905360003447265e-09 -8.966794591325583e-09 0.0226971481621029 2.936536546131097e-10 -2.2905360003447265e-09 2.936536546131097e-10 0.0123243761667682" pbc="T T F"
H        1.40307756       0.81006721      20.00000000        3       1.00000000       0.00000000       0.00000000       0.00000000       0.00000000       0.00000000       0.00000000
H        4.20923268       0.81006721      20.00000000        3       1.00000000       0.00000000       0.00000000       0.00000000       0.00000000       0.00000000       0.00000000
H        0.00000000       3.24026883      20.00000000        3       1.00000000       0.00000000       0.00000000       0.00000000       0.00000000       0.00000000       0.00000000
H        2.80615512       3.24026883      20.00000000        3       1.00000000       0.00000000       0.00000000       0.00000000       0.00000000       0.00000000       0.00000000
H        0.00000000       1.62013441      22.29121606        2       1.00000000       0.00000000       0.00000000       0.00000000       0.00000000       0.00000000       0.00000000
H        2.80615512       1.62013441      22.29121606        2       1.00000000       0.00000000       0.00000000       0.00000000       0.00000000       0.00000000       0.00000000
H        1.40307756       4.05033604      22.29121606        2       1.00000000       0.00000000       0.00000000       0.00000000       0.00000000       0.00000000       0.00000000
H        4.20923268       4.05033604      22.29121606        2       1.00000000       0.00000000       0.00000000       0.00000000       0.00000000       0.00000000       0.00000000
H        0.00000000       0.00000000      24.58243212        1       1.00000000       0.00000000       0.00000000       0.00000000       0.00000000       0.00000000       0.00000000
H        2.80615512       0.00000000      24.58243212        1       1.00000000       0.00000000       0.00000000       0.00000000       0.00000000       0.00000000       0.00000000
H        1.40307756       2.43020162      24.58243212        1       1.00000000       0.00000000       0.00000000       0.00000000       0.00000000       0.00000000       0.00000000
H        4.20923268       2.43020162      24.58243212        1       1.00000000       0.00000000       0.00000000       0.00000000       0.00000000       0.00000000       0.00000000
H        2.80615471       1.62013420      17.77136701        0       1.00000000       0.00000025      -0.00000088       0.00000075       0.00007404       0.00062247       0.00000200
H        1.40307773       4.05033629      17.77136720        0       1.00000000      -0.00000028      -0.00000081      -0.00000009       0.00176126      -0.00062112       0.00000160
H        4.19930913       0.81021377      26.81077047        0       1.00000000      -0.00000013       0.00000029       0.00000026       0.00000021      -0.00000415      -0.00000007
H       -0.00000020       1.62013435      17.77136725        0       1.00000000       0.00000115       0.00000077       0.00000005      -0.00007371       0.00067741       0.00000414
H        0.00992333       3.24041478      26.81077031        0       1.00000000       0.00000044       0.00000011      -0.00000146      -0.00000126       0.00000393      -0.00000137
H        4.20923269       4.05033566      17.77136656        0       1.00000000      -0.00000032       0.00000091      -0.00000127      -0.00176289      -0.00067933      -0.00000189
18
Lattice="5.612310241546866 0.0 0.0 0.0 4.860403243099165 0.0 0.0 0.0 44.58243212332868" Properties=species:S:1:pos:R:3:tags:I:1:masses:R:1:momenta:R:3:forces:R:3 KEmax=23.26679191048647 iter=119999 volume=1216.1236359717223 ns_energy=-11.637341369352464 last_walked_iter_clone=119513 energy=-11.637340619213917 stress="0.02258283241413586 -8.966794591325583e-09 -2.2905360003447265e-09 -8.966794591325583e-09 0.0226971481621029 2.936536546131097e-10 -2.2905360003447265e-09 2.936536546131097e-10 0.0123243761667682" pbc="T T F"
H        1.40307756       0.81006721      20.00000000        3       1.00000000       0.00000000       0.00000000       0.00000000       0.00000000       0.00000000       0.00000000
H        4.20923268       0.81006721      20.00000000        3       1.00000000       0.00000000       0.00000000       0.00000000       0.00000000       0.00000000       0.00000000
H        0.00000000       3.24026883      20.00000000        3       1.00000000       0.00000000       0.00000000       0.00000000       0.00000000       0.00000000       0.00000000
H        2.80615512       3.24026883      20.00000000        3       1.00000000       0.00000000       0.00000000       0.00000000       0.00000000       0.00000000       0.00000000
H        0.00000000       1.62013441      22.29121606        2       1.00000000       0.00000000       0.00000000       0.00000000       0.00000000       0.00000000       0.00000000
H        2.80615512       1.62013441      22.29121606        2       1.00000000       0.00000000       0.00000000       0.00000000       0.00000000       0.00000000       0.00000000
H        1.40307756       4.05033604      22.29121606        2       1.00000000       0.00000000       0.00000000       0.00000000       0.00000000       0.00000000       0.00000000
H        4.20923268       4.05033604      22.29121606        2       1.00000000       0.00000000       0.00000000       0.00000000       0.00000000       0.00000000       0.00000000
H        0.00000000       0.00000000      24.58243212        1       1.00000000       0.00000000       0.00000000       0.00000000       0.00000000       0.00000000       0.00000000
H        2.80615512       0.00000000      24.58243212        1       1.00000000       0.00000000       0.00000000       0.00000000       0.00000000       0.00000000       0.00000000
H        1.40307756       2.43020162      24.58243212        1       1.00000000       0.00000000       0.00000000       0.00000000       0.00000000       0.00000000       0.00000000
H        4.20923268       2.43020162      24.58243212        1       1.00000000       0.00000000       0.00000000       0.00000000       0.00000000       0.00000000       0.00000000
H        2.80615561       1.62013413      17.77136700        0       1.00000000       0.00000045      -0.00000052      -0.00000071       0.00007404       0.00062247       0.00000200
H        1.40307829       4.05033599      17.77136724        0       1.00000000      -0.00000092      -0.00000191      -0.00000005       0.00176126      -0.00062112       0.00000160
H        4.19930968       0.81021425      26.81077063        0       1.00000000       0.00000059      -0.00000137      -0.00000043       0.00000021      -0.00000415      -0.00000007
H        0.00000028       1.62013389      17.77136724        0       1.00000000      -0.00000011       0.00000031       0.00000032      -0.00007371       0.00067741       0.00000414
H        0.00992387       3.24041522      26.81077061        0       1.00000000      -0.00000083       0.00000049      -0.00000003      -0.00000126       0.00000393      -0.00000137
H        4.20923296       4.05033568      17.77136660        0       1.00000000       0.00000069      -0.00000007       0.00000019      -0.00176289      -0.00067933      -0.00000189
18
Lattice="5.612310241546866 0.0 0.0 0.0 4.860403243099165 0.0 0.0 0.0 44.58243212332868" Properties=species:S:1:pos:R:3:tags:I:1:masses:R:1:momenta:R:3:forces:R:3 KEmax=23.26679191048647 iter=119999 volume=1216.1236359717223 ns_energy=-11.63734136935235 last_walked_iter_clone=118603 energy=-11.637340619213917 stress="0.02258283241413586 -8.966794591325583e-09 -2.2905360003447265e-09 -8.966794591325583e-09 0.0226971481621029 2.936536546131097e-10 -2.2905360003447265e-09 2.936536546131097e-10 0.0123243761667682" pbc="T T F"
H        1.40307756       0.81006721      20.00000000        3       1.00000000       0.00000000       0.00000000       0.00000000       0.00000000       0.00000000       0.00000000
H        4.20923268       0.81006721      20.00000000        3       1.00000000       0.00000000       0.00000000       0.00000000       0.00000000       0.00000000       0.00000000
H        0.00000000       3.24026883      20.00000000        3       1.00000000       0.00000000       0.00000000       0.00000000       0.00000000       0.00000000       0.00000000
H        2.80615512       3.24026883      20.00000000        3       1.00000000       0.00000000       0.00000000       0.00000000       0.00000000       0.00000000       0.00000000
H        0.00000000       1.62013441      22.29121606        2       1.00000000       0.00000000       0.00000000       0.00000000       0.00000000       0.00000000       0.00000000
H        2.80615512       1.62013441      22.29121606        2       1.00000000       0.00000000       0.00000000       0.00000000       0.00000000       0.00000000       0.00000000
H        1.40307756       4.05033604      22.29121606        2       1.00000000       0.00000000       0.00000000       0.00000000       0.00000000       0.00000000       0.00000000
H        4.20923268       4.05033604      22.29121606        2       1.00000000       0.00000000       0.00000000       0.00000000       0.00000000       0.00000000       0.00000000
H        0.00000000       0.00000000      24.58243212        1       1.00000000       0.00000000       0.00000000       0.00000000       0.00000000       0.00000000       0.00000000
H        2.80615512       0.00000000      24.58243212        1       1.00000000       0.00000000       0.00000000       0.00000000       0.00000000       0.00000000       0.00000000
H        1.40307756       2.43020162      24.58243212        1       1.00000000       0.00000000       0.00000000       0.00000000       0.00000000       0.00000000       0.00000000
H        4.20923268       2.43020162      24.58243212        1       1.00000000       0.00000000       0.00000000       0.00000000       0.00000000       0.00000000       0.00000000
H        2.80615567       1.62013417      17.77136735        0       1.00000000      -0.00000013       0.00000047       0.00000057       0.00007404       0.00062247       0.00000200
H        1.40307784       4.05033582      17.77136690        0       1.00000000      -0.00000002       0.00000104      -0.00000041       0.00176126      -0.00062112       0.00000160
H        4.19930809       0.81021373      26.81077101        0       1.00000000       0.00000088       0.00000187      -0.00000045       0.00000021      -0.00000415      -0.00000007
H        5.61231075       1.62013417      17.77136759        0       1.00000000       0.00000023       0.00000065      -0.00000055      -0.00007371       0.00067741       0.00000414
H        0.00992355       3.24041533      26.81077065        0       1.00000000       0.00000063      -0.00000013       0.00000064      -0.00000126       0.00000393      -0.00000137
H        4.20923357       4.05033605      17.77136697        0       1.00000000       0.00000095      -0.00000000      -0.00000036      -0.00176289      -0.00067933      -0.00000189
18
Lattice="5.612310241546866 0.0 0.0 0.0 4.860403243099165 0.0 0.0 0.0 44.58243212332868" Properties=species:S:1:pos:R:3:tags:I:1:masses:R:1:momenta:R:3:forces:R:3 KEmax=23.26679191048647 iter=119999 volume=1216.1236359717223 ns_energy=-11.63734136935233 last_walked_iter_clone=118784 energy=-11.637340619213917 stress="0.02258283241413586 -8.966794591325583e-09 -2.2905360003447265e-09 -8.966794591325583e-09 0.0226971481621029 2.936536546131097e-10 -2.2905360003447265e-09 2.936536546131097e-10 0.0123243761667682" pbc="T T F"
H        1.40307756       0.81006721      20.00000000        3       1.00000000       0.00000000       0.00000000       0.00000000       0.00000000       0.00000000       0.00000000
H        4.20923268       0.81006721      20.00000000        3       1.00000000       0.00000000       0.00000000       0.00000000       0.00000000       0.00000000       0.00000000
H        0.00000000       3.24026883      20.00000000        3       1.00000000       0.00000000       0.00000000       0.00000000       0.00000000       0.00000000       0.00000000
H        2.80615512       3.24026883      20.00000000        3       1.00000000       0.00000000       0.00000000       0.00000000       0.00000000       0.00000000       0.00000000
H        0.00000000       1.62013441      22.29121606        2       1.00000000       0.00000000       0.00000000       0.00000000       0.00000000       0.00000000       0.00000000
H        2.80615512       1.62013441      22.29121606        2       1.00000000       0.00000000       0.00000000       0.00000000       0.00000000       0.00000000       0.00000000
H        1.40307756       4.05033604      22.29121606        2       1.00000000       0.00000000       0.00000000       0.00000000       0.00000000       0.00000000       0.00000000
H        4.20923268       4.05033604      22.29121606        2       1.00000000       0.00000000       0.00000000       0.00000000       0.00000000       0.00000000       0.00000000
H        0.00000000       0.00000000      24.58243212        1       1.00000000       0.00000000       0.00000000       0.00000000       0.00000000       0.00000000       0.00000000
H        2.80615512       0.00000000      24.58243212        1       1.00000000       0.00000000       0.00000000       0.00000000       0.00000000       0.00000000       0.00000000
H        1.40307756       2.43020162      24.58243212        1       1.00000000       0.00000000       0.00000000       0.00000000       0.00000000       0.00000000       0.00000000
H        4.20923268       2.43020162      24.58243212        1       1.00000000       0.00000000       0.00000000       0.00000000       0.00000000       0.00000000       0.00000000
H        2.80615574       1.62013385      17.77136623        0       1.00000000       0.00000022       0.00000080       0.00000048       0.00007404       0.00062247       0.00000200
H        1.40307796       4.05033542      17.77136695        0       1.00000000      -0.00000013       0.00000169       0.00000077       0.00176126      -0.00062112       0.00000160
H        4.19930851       0.81021406      26.81077042        0       1.00000000       0.00000031      -0.00000062       0.00000033       0.00000021      -0.00000415      -0.00000007