18
Lattice="5.612310241546866 0.0 0.0 0.0 4.860403243099165 0.0 0.0 0.0 44.58243212332868" Properties=species:S:1:pos:R:3:tags:I:1:masses:R:1:momenta:R:3:forces:R:3 KEmax=23.26679191048647 iter=83881 volume=1216.1236359717223 ns_energy=-11.637341369157214 last_walked_iter_clone=83864 energy=-11.637341369232105 stress="0.022582859253841816 1.602332319701831e-08 -9.585169911126018e-08 1.602332319701831e-08 0.02269718667274257 2.771199199550145e-08 -9.585169911126018e-08 2.771199199550145e-08 0.012324317859198707" pbc="T T F"
H        1.40307756       0.81006721      20.00000000        3       1.00000000       0.00000000       0.00000000       0.00000000       0.00000000       0.00000000       0.00000000
H        4.20923268       0.81006721      20.00000000        3       1.00000000       0.00000000       0.00000000       0.00000000       0.00000000       0.00000000       0.00000000
H        0.00000000       3.24026883      20.00000000        3       1.00000000       0.00000000       0.00000000       0.00000000       0.00000000       0.00000000       0.00000000
H        2.80615512       3.24026883      20.00000000        3       1.00000000       0.00000000       0.00000000       0.00000000       0.00000000       0.00000000       0.00000000
H        0.00000000       1.62013441      22.29121606        2       1.00000000       0.00000000       0.00000000       0.00000000       0.00000000       0.00000000       0.00000000
H        2.80615512       1.62013441      22.29121606        2       1.00000000       0.00000000       0.00000000       0.00000000       0.00000000       0.00000000       0.00000000
H        1.40307756       4.05033604      22.29121606        2       1.00000000       0.00000000       0.00000000       0.00000000       0.00000000       0.00000000       0.00000000
H        4.20923268       4.05033604      22.29121606        2       1.00000000       0.00000000       0.00000000       0.00000000       0.00000000       0.00000000       0.00000000
H        0.00000000       0.00000000      24.58243212        1       1.00000000       0.00000000       0.00000000       0.00000000       0.00000000       0.00000000       0.00000000
H        2.80615512       0.00000000      24.58243212        1       1.00000000       0.00000000       0.00000000       0.00000000       0.00000000       0.00000000       0.00000000
H        1.40307756       2.43020162      24.58243212        1       1.00000000       0.00000000       0.00000000       0.00000000       0.00000000       0.00000000       0.00000000
H        4.20923268       2.43020162      24.58243212        1       1.00000000       0.00000000       0.00000000       0.00000000       0.00000000       0.00000000       0.00000000
H        2.80615521       1.62013717      17.77136372        0       1.00000000      -0.00000045      -0.00000070       0.00000395       0.00000628      -0.00000032       0.00000063
H        1.40307420       4.05033917      17.77136965        0       1.00000000      -0.00000533      -0.00000358      -0.00000445       0.00000381      -0.00000730      -0.00000092
H        4.19931130       0.81021559      26.81076826        0       1.00000000      -0.00000071      -0.00000441      -0.00000514       0.00000616      -0.00000115      -0.00001136
H        5.61230748       1.62013332      17.77136610        0       1.00000000       0.00000243       0.00000178       0.00000396      -0.00000541       0.00000992      -0.00001083
H        0.00992482       3.24041984      26.81077129        0       1.00000000      -0.00000089      -0.00000423       0.00000335      -0.00000299       0.00000006       0.00000201
H        4.20922772       4.05033598      17.77136781        0       1.00000000       0.00000188       0.00000131       0.00000442      -0.00001209      -0.00000072       0.00000305
18
Lattice="5.612310241546866 0.0 0.0 0.0 4.860403243099165 0.0 0.0 0.0 44.58243212332868" Properties=species:S:1:pos:R:3:tags:I:1:masses:R:1:momenta:R:3:forces:R:3 KEmax=23.26679191048647 iter=83881 volume=1216.1236359717223 ns_energy=-11.637341369160044 last_walked_iter_clone=83753 energy=-11.637341369232105 stress="0.022582859253841816 1.602332319701831e-08 -9.585169911126018e-08 1.602332319701831e-08 0.02269718667274257 2.771199199550145e-08 -9.585169911126018e-08 2.771199199550145e-08 0.012324317859198707" pbc="T T F"
H        1.40307756       0.81006721      20.00000000        3       1.00000000       0.00000000       0.00000000       0.00000000       0.00000000       0.00000000       0.00000000
H        4.20923268       0.81006721      20.00000000        3       1.00000000       0.00000000       0.00000000       0.00000000       0.00000000       0.00000000       0.00000000
H        0.00000000       3.24026883      20.00000000        3       1.00000000       0.00000000       0.00000000       0.00000000       0.00000000       0.00000000       0.00000000
H        2.80615512       3.24026883      20.00000000        3       1.00000000       0.00000000       0.00000000       0.00000000       0.00000000       0.00000000       0.00000000
H        0.00000000       1.62013441      22.29121606        2       1.00000000       0.00000000       0.00000000       0.00000000       0.00000000       0.00000000       0.00000000
H        2.80615512       1.62013441      22.29121606        2       1.00000000       0.00000000       0.00000000       0.00000000       0.00000000       0.00000000       0.00000000
H        1.40307756       4.05033604      22.29121606        2       1.00000000       0.00000000       0.00000000       0.00000000       0.00000000       0.00000000       0.00000000
H        4.20923268       4.05033604      22.29121606        2       1.00000000       0.00000000       0.00000000       0.00000000       0.00000000       0.00000000       0.00000000
H        0.00000000       0.00000000      24.58243212        1       1.00000000       0.00000000       0.00000000       0.00000000       0.00000000       0.00000000       0.00000000
H        2.80615512       0.00000000      24.58243212        1       1.00000000       0.00000000       0.00000000       0.00000000       0.00000000       0.00000000       0.00000000
H        1.40307756       2.43020162      24.58243212        1       1.00000000       0.00000000       0.00000000       0.00000000       0.00000000       0.00000000       0.00000000
H        4.20923268       2.43020162      24.58243212        1       1.00000000       0.00000000       0.00000000       0.00000000       0.00000000       0.00000000       0.00000000
H        2.80615464       1.62013425      17.77136827        0       1.00000000      -0.00000246      -0.00000567      -0.00000811       0.00000628      -0.00000032       0.00000063
H        1.40307846       4.05033536      17.77136810        0       1.00000000       0.00000186       0.00000309      -0.00000029       0.00000381      -0.00000730      -0.00000092
H        4.19930999       0.81020919      26.81077119        0       1.00000000       0.00000238      -0.00000058      -0.00000099       0.00000616      -0.00000115      -0.00001136
H        5.61230818       1.62013307      17.77136652        0       1.00000000      -0.00000189      -0.00000639      -0.00000457      -0.00000541       0.00000992      -0.00001083
H        0.00992232       3.24041467      26.81076925        0       1.00000000       0.00000078      -0.00000083       0.00000363      -0.00000299       0.00000006       0.00000201
H        4.20922950       4.05033608      17.77136916        0       1.00000000       0.00000705       0.00000313       0.00000450      -0.00001209      -0.00000072       0.00000305
18
Lattice="5.612310241546866 0.0 0.0 0.0 4.860403243099165 0.0 0.0 0.0 44.58243212332868" Properties=species:S:1:pos:R:3:tags:I:1:masses:R:1:momenta:R:3:forces:R:3 KEmax=23.26679191048647 iter=83881 volume=1216.1236359717223 ns_energy=-11.63734136915673 last_walked_iter_clone=83683 energy=-11.637341369232105 stress="0.022582859253841816 1.602332319701831e-08 -9.585169911126018e-08 1.602332319701831e-08 0.02269718667274257 2.771199199550145e-08 -9.585169911126018e-08 2.771199199550145e-08 0.012324317859198707" pbc="T T F"
H        1.40307756       0.81006721      20.00000000        3       1.00000000       0.00000000       0.00000000       0.00000000       0.00000000       0.00000000       0.00000000
H        4.20923268       0.81006721      20.00000000        3       1.00000000       0.00000000       0.00000000       0.00000000       0.00000000       0.00000000       0.00000000
H        0.00000000       3.24026883      20.00000000        3       1.00000000       0.00000000       0.00000000       0.00000000       0.00000000       0.00000000       0.00000000
H        2.80615512       3.24026883      20.00000000        3       1.00000000       0.00000000       0.00000000       0.00000000       0.00000000       0.00000000       0.00000000
H        0.00000000       1.62013441      22.29121606        2       1.00000000       0.00000000       0.00000000       0.00000000       0.00000000       0.00000000       0.00000000
H        2.80615512       1.62013441      22.29121606        2       1.00000000       0.00000000       0.00000000       0.00000000       0.00000000       0.00000000       0.00000000
H        1.40307756       4.05033604      22.29121606        2       1.00000000       0.00000000       0.00000000       0.00000000       0.00000000       0.00000000       0.00000000
H        4.20923268       4.05033604      22.29121606        2       1.00000000       0.00000000       0.00000000       0.00000000       0.00000000       0.00000000       0.00000000
H        0.00000000       0.00000000      24.58243212        1       1.00000000       0.00000000       0.00000000       0.00000000       0.00000000       0.00000000       0.00000000
H        2.80615512       0.00000000      24.58243212        1       1.00000000       0.00000000       0.00000000       0.00000000       0.00000000       0.00000000       0.00000000
H        1.40307756       2.43020162      24.58243212        1       1.00000000       0.00000000       0.00000000       0.00000000       0.00000000       0.00000000       0.00000000
H        4.20923268       2.43020162      24.58243212        1       1.00000000       0.00000000       0.00000000       0.00000000       0.00000000       0.00000000       0.00000000
H        2.80615464       1.62012801      17.77136829        0       1.00000000      -0.00000253       0.00000141       0.00000598       0.00000628      -0.00000032       0.00000063
H        1.40307931       4.05033318      17.77136650        0       1.00000000       0.00000387       0.00000591       0.00000312       0.00000381      -0.00000730      -0.00000092
H        4.19930977       0.81021164      26.81077091        0       1.00000000      -0.00000204      -0.00000171       0.00000068       0.00000616      -0.00000115      -0.00001136
H       -0.00000151       1.62013200      17.77136813        0       1.00000000      -0.00000194      -0.00000515       0.00000484      -0.00000541       0.00000992      -0.00001083
H        0.00992075       3.24041503      26.81076847        0       1.00000000       0.00000072      -0.00000566       0.00000218      -0.00000299       0.00000006       0.00000201
H        4.20923252       4.05033478      17.77137170        0       1.00000000      -0.00000118       0.00000262      -0.00000078      -0.00001209      -0.00000072       0.00000305
18
Lattice="5.612310241546866 0.0 0.0 0.0 4.860403243099165 0.0 0.0 0.0 44.58243212332868" Properties=species:S:1:pos:R:3:tags:I:1:masses:R:1:momenta:R:3:forces:R:3 KEmax=23.26679191048647 iter=83881 volume=1216.1236359717223 ns_energy=-11.637341369156108 last_walked_iter_clone=83537 energy=-11.637341369232105 stress="0.022582859253841816 1.602332319701831e-08 -9.585169911126018e-08 1.602332319701831e-08 0.02269718667274257 2.771199199550145e-08 -9.585169911126018e-08 2.771199199550145e-08 0.012324317859198707" pbc="T T F"
H        1.40307756       0.81006721      20.00000000        3       1.00000000       0.00000000       0.00000000       0.00000000       0.00000000       0.00000000       0.00000000
H        4.20923268       0.81006721      20.00000000        3       1.00000000       0.00000000       0.00000000       0.00000000       0.00000000       0.00000000       0.00000000
H        0.00000000       3.24026883      20.00000000        3       1.00000000       0.00000000       0.00000000       0.00000000       0.00000000       0.00000000       0.00000000
H        2.80615512       3.24026883      20.00000000        3       1.00000000       0.00000000       0.00000000       0.00000000       0.00000000       0.00000000       0.00000000
H        0.00000000       1.62013441      22.29121606        2       1.00000000       0.00000000       0.00000000       0.00000000       0.00000000       0.00000000       0.00000000
H        2.80615512       1.62013441      22.29121606        2       1.00000000       0.00000000       0.00000000       0.00000000       0.00000000       0.00000000       0.00000000
H        1.40307756       4.05033604      22.29121606        2       1.00000000       0.00000000       0.00000000       0.00000000       0.00000000       0.00000000       0.00000000
H        4.20923268       4.05033604      22.29121606        2       1.00000000       0.00000000       0.00000000       0.00000000       0.00000000       0.00000000       0.00000000
H        0.00000000       0.00000000      24.58243212        1       1.00000000       0.00000000       0.00000000       0.00000000       0.00000000       0.00000000       0.00000000
H        2.80615512       0.00000000      24.58243212        1       1.00000000       0.00000000       0.00000000       0.00000000       0.00000000       0.00000000       0.00000000
H        1.40307756       2.43020162      24.58243212        1       1.00000000       0.00000000       0.00000000       0.00000000       0.00000000       0.00000000       0.00000000
H        4.20923268       2.43020162      24.58243212        1       1.00000000       0.00000000       0.00000000       0.00000000       0.00000000       0.00000000       0.00000000
H        2.80615306       1.62013494      17.77136634        0       1.00000000      -0.00000251      -0.00000638      -0.00000261       0.00000628      -0.00000032       0.00000063
H        1.40307464       4.05033254      17.77136463        0       1.00000000      -0.00000175       0.00000650       0.00000153       0.00000381      -0.00000730      -0.00000092
H        4.19931011       0.81021368      26.81077116        0       1.00000000       0.00000151      -0.00000093       0.00000005       0.00000616      -0.00000115      -0.00001136
H        5.61230651       1.62012948      17.77136897        0       1.00000000       0.00000119      -0.00000666       0.00000240      -0.00000541       0.00000992      -0.00001083
H        0.00992228       3.24041209      26.81076898        0       1.00000000       0.00000088       0.00000257       0.00000371      -0.00000299       0.00000006       0.00000201
H        4.20923079       4.05033117      17.77136760        0       1.00000000      -0.00000303      -0.00000280      -0.00000331      -0.00001209      -0.00000072       0.00000305
18
Lattice="5.612310241546866 0.0 0.0 0.0 4.860403243099165 0.0 0.0 0.0 44.58243212332868" Properties=species:S:1:pos:R:3:tags:I:1:masses:R:1:momenta:R:3:forces:R:3 KEmax=23.26679191048647 iter=83881 volume=1216.1236359717223 ns_energy=-11.637341369156543 last_walked_iter_clone=83462 energy=-11.637341369232105 stress="0.022582859253841816 1.602332319701831e-08 -9.585169911126018e-08 1.602332319701831e-08 0.02269718667274257 2.771199199550145e-08 -9.585169911126018e-08 2.771199199550145e-08 0.012324317859198707" pbc="T T F"
H        1.40307756       0.81006721      20.00000000        3       1.00000000       0.00000000       0.00000000       0.00000000       0.00000000       0.00000000       0.00000000
H        4.20923268       0.81006721      20.00000000        3       1.00000000       0.00000000       0.00000000       0.00000000       0.00000000       0.00000000       0.00000000
H        0.00000000       3.24026883      20.00000000        3       1.00000000       0.00000000       0.00000000       0.00000000       0.00000000       0.00000000       0.00000000
H        2.80615512       3.24026883      20.00000000        3       1.00000000       0.00000000       0.00000000       0.00000000       0.00000000       0.00000000       0.00000000
H        0.00000000       1.62013441      22.29121606        2       1.00000000       0.00000000       0.00000000       0.00000000       0.00000000       0.00000000       0.00000000
H        2.80615512       1.62013441      22.29121606        2       1.00000000       0.00000000       0.00000000       0.00000000       0.00000000       0.00000000       0.00000000
H        1.40307756       4.05033604      22.29121606        2       1.00000000       0.00000000       0.00000000       0.00000000       0.00000000       0.00000000       0.00000000
H        4.20923268       4.05033604      22.29121606        2       1.00000000       0.00000000       0.00000000       0.00000000       0.00000000       0.00000000       0.00000000
H        0.00000000       0.00000000      24.58243212        1       1.00000000       0.00000000       0.00000000       0.00000000       0.00000000       0.00000000       0.00000000
H        2.80615512       0.00000000      24.58243212        1       1.00000000       0.00000000       0.00000000       0.00000000       0.00000000       0.00000000       0.00000000
H        1.40307756       2.43020162      24.58243212        1       1.00000000       0.00000000       0.00000000       0.00000000       0.00000000       0.00000000       0.00000000
H        4.20923268       2.43020162      24.58243212        1       1.00000000       0.00000000       0.00000000       0.00000000       0.00000000       0.00000000       0.00000000
H        2.80615470       1.62013554      17.77136478        0       1.00000000       0.00000242       0.00000102       0.00000376       0.00000628      -0.00000032       0.00000063
H        1.40307950       4.05033459      17.77136810        0       1.00000000      -0.00000573       0.00000078      -0.00000576       0.00000381      -0.00000730      -0.00000092
H        4.19930476       0.81021279      26.81077190        0       1.00000000       0.00000921       0.00000076      -0.00000412       0.00000616      -0.00000115      -0.00001136
H        0.00000086       1.62013609      17.77136688        0       1.00000000       0.00000264       0.00000030      -0.00000635      -0.00000541       0.00000992      -0.00001083
H        0.00991966       3.24041767      26.81077067        0       1.00000000      -0.00000005      -0.00000299      -0.00000217      -0.00000299       0.00000006       0.00000201
H        4.20923621       4.05033647      17.77136450        0       1.00000000      -0.00000058       0.00000062       0.00000351      -0.00001209      -0.00000072       0.00000305
18
Lattice="5.612310241546866 0.0 0.0 0.0 4.860403243099165 0.0 0.0 0.0 44.58243212332868" Properties=species:S:1:pos:R:3:tags:I:1:masses:R:1:momenta:R:3:forces:R:3 KEmax=23.26679191048647 iter=83881 volume=1216.1236359717223 ns_energy=-11.637341369156005 last_walked_iter_clone=83787 energy=-11.637341369232105 stress="0.022582859253841816 1.602332319701831e-08 -9.585169911126018e-08 1.602332319701831e-08 0.02269718667274257 2.771199199550145e-08 -9.585169911126018e-08 2.771199199550145e-08 0.012324317859198707" pbc="T T F"
H        1.40307756       0.81006721      20.00000000        3       1.00000000       0.00000000       0.00000000       0.00000000       0.00000000       0.00000000       0.00000000
H        4.20923268       0.81006721      20.00000000        3       1.00000000       0.00000000       0.00000000       0.00000000       0.00000000       0.00000000       0.00000000
H        0.00000000       3.24026883      20.00000000        3       1.00000000       0.00000000       0.00000000       0.00000000       0.00000000       0.00000000       0.00000000
H        2.80615512       3.24026883      20.00000000        3       1.00000000       0.00000000       0.00000000       0.00000000       0.00000000       0.00000000       0.00000000
H        0.00000000       1.62013441      22.29121606        2       1.00000000       0.00000000       0.00000000       0.00000000       0.00000000       0.00000000       0.00000000
H        2.80615512       1.62013441      22.29121606        2       1.00000000       0.00000000       0.00000000       0.00000000       0.00000000       0.00000000       0.00000000
H        1.40307756       4.05033604      22.29121606        2       1.00000000       0.00000000       0.00000000       0.00000000       0.00000000       0.00000000       0.00000000
H        4.20923268       4.05033604      22.29121606        2       1.00000000       0.00000000       0.00000000       0.00000000       0.00000000       0.00000000       0.00000000
H        0.00000000       0.00000000      24.58243212        1       1.00000000       0.00000000       0.00000000       0.00000000       0.00000000       0.00000000       0.00000000
H        2.80615512       0.00000000      24.58243212        1       1.00000000       0.00000000       0.00000000       0.00000000       0.00000000       0.00000000       0.00000000
H        1.40307756       2.43020162      24.58243212        1       1.00000000       0.00000000       0.00000000       0.00000000       0.00000000       0.00000000       0.00000000
H        4.20923268       2.43020162      24.58243212        1       1.00000000       0.00000000       0.00000000       0.00000000       0.00000000       0.00000000       0.00000000
H        2.80615491       1.62013690      17.77136896        0       1.00000000      -0.00000154       0.00000007      -0.00000379       0.00000628      -0.00000032       0.00000063
H        1.40307786       4.05033662      17.77136834        0       1.00000000       0.00000226      -0.00000174       0.00000033       0.00000381      -0.00000730      -0.00000092
H        4.19930957       0.81022113      26.81077116        0       1.00000000       0.00000237      -0.00000495      -0.00000275       0.00000616      -0.00000115      -0.00001136
H        5.61231231       1.62013746      17.77136940        0       1.00000000       0.00000524      -0.00000641       0.00000435      -0.00000541       0.00000992      -0.00001083
H        0.00992313       3.24042219      26.81077155        0       1.00000000       0.00000519       0.00000174       0.00000156      -0.00000299       0.00000006       0.00000201
H        4.20923284       4.05033543      17.77136868        0       1.00000000       0.00000497       0.00000109      -0.00000530      -0.00001209      -0.00000072       0.00000305
18
Lattice="5.612310241546866 0.0 0.0 0.0 4.860403243099165 0.0 0.0 0.0 44.58243212332868" Properties=species:S:1:pos:R:3:tags:I:1:masses:R:1:momenta:R:3:forces:R:3 KEmax=23.26679191048647 iter=83881 volume=1216.1236359717223 ns_energy=-11.637341369158587 last_walked_iter_clone=83533 energy=-11.637341369232105 stress="0.022582859253841816 1.602332319701831e-08 -9.585169911126018e-08 1.602332319701831e-08 0.02269718667274257 2.771199199550145e-08 -9.585169911126018e-08 2.771199199550145e-08 0.012324317859198707" pbc="T T F"
H        1.40307756       0.81006721      20.00000000        3       1.00000000       0.00000000       0.00000000       0.00000000       0.00000000       0.00000000       0.00000000
H        4.20923268       0.81006721      20.00000000        3       1.00000000       0.00000000       0.00000000       0.00000000       0.00000000       0.00000000       0.00000000
H        0.00000000       3.24026883      20.00000000        3       1.00000000       0.00000000       0.00000000       0.00000000       0.00000000       0.00000000       0.00000000
H        2.80615512       3.24026883      20.00000000        3       1.00000000       0.00000000       0.00000000       0.00000000       0.00000000       0.00000000       0.00000000
H        0.00000000       1.62013441      22.29121606        2       1.00000000       0.00000000       0.00000000       0.00000000       0.00000000       0.00000000       0.00000000
H        2.80615512       1.62013441      22.29121606        2       1.00000000       0.00000000       0.00000000       0.00000000       0.00000000       0.00000000       0.00000000
H        1.40307756       4.05033604      22.29121606        2       1.00000000       0.00000000       0.00000000       0.00000000       0.00000000       0.00000000       0.00000000
H        4.20923268       4.05033604      22.29121606        2       1.00000000       0.00000000       0.00000000       0.00000000       0.00000000       0.00000000       0.00000000
H        0.00000000       0.00000000      24.58243212        1       1.00000000       0.00000000       0.00000000       0.00000000       0.00000000       0.00000000       0.00000000
H        2.80615512       0.00000000      24.58243212        1       1.00000000       0.00000000       0.00000000       0.00000000       0.00000000       0.00000000       0.00000000
H        1.40307756       2.43020162      24.58243212        1       1.00000000       0.00000000       0.00000000       0.00000000       0.00000000       0.00000000       0.00000000
H        4.20923268       2.43020162      24.58243212        1       1.00000000       0.00000000       0.00000000       0.00000000       0.00000000       0.00000000       0.00000000
H        2.80615363       1.62013612      17.77136902        0       1.00000000       0.00000029       0.00000074       0.00000139       0.00000628      -0.00000032       0.00000063
H        1.40307933       4.05033763      17.77136846        0       1.00000000       0.00000014      -0.00000463      -0.00000260       0.00000381      -0.00000730      -0.00000092
H        4.19930892       0.81021661      26.81076910        0       1.00000000      -0.00000397      -0.00000487       0.00000282       0.00000616      -0.00000115      -0.00001136
H       -0.00000029       1.62013633      17.77136981        0       1.00000000       0.00000231      -0.00000837      -0.00000501      -0.00000541       0.00000992      -0.00001083
H        0.00991634       3.24041863      26.81077067        0       1.00000000       0.00000062       0.00000359       0.00000111      -0.00000299       0.00000006       0.00000201
H        4.20923498       4.05033873      17.77136747        0       1.00000000       0.00000007      -0.00000039       0.00000802      -0.00001209      -0.00000072       0.00000305
18
Lattice="5.612310241546866 0.0 0.0 0.0 4.860403243099165 0.0 0.0 0.0 44.58243212332868" Properties=species:S:1:pos:R:3:tags:I:1:masses:R:1:momenta:R:3:forces:R:3 KEmax=23.26679191048647 iter=83881 volume=1216.1236359717223 ns_energy=-11.6373413691557 last_walked_iter_clone=83771 energy=-11.637341369232105 stress="0.022582859253841816 1.602332319701831e-08 -9.585169911126018e-08 1.602332319701831e-08 0.02269718667274257 2.771199199550145e-08 -9.585169911126018e-08 2.771199199550145e-08 0.012324317859198707" pbc="T T F"
H        1.40307756       0.81006721      20.00000000        3       1.00000000       0.00000000       0.00000000       0.00000000       0.00000000       0.00000000       0.00000000
H        4.20923268       0.81006721      20.00000000        3       1.00000000       0.00000000       0.00000000       0.00000000       0.00000000       0.00000000       0.00000000
H        0.00000000       3.24026883      20.00000000        3       1.00000000       0.00000000       0.00000000       0.00000000       0.00000000       0.00000000       0.00000000
H        2.80615512       3.24026883      20.00000000        3       1.00000000       0.00000000       0.00000000       0.00000000       0.00000000       0.00000000       0.00000000
H        0.00000000       1.62013441      22.29121606        2       1.00000000       0.00000000       0.00000000       0.00000000       0.00000000       0.00000000       0.00000000
H        2.80615512       1.62013441      22.29121606        2       1.00000000       0.00000000       0.00000000       0.00000000       0.00000000       0.00000000       0.00000000
H        1.40307756       4.05033604      22.29121606        2       1.00000000       0.00000000       0.00000000       0.00000000       0.00000000       0.00000000       0.00000000
H        4.20923268       4.05033604      22.29121606        2       1.00000000       0.00000000       0.00000000       0.00000000       0.00000000       0.00000000       0.00000000
H        0.00000000       0.00000000      24.58243212        1       1.00000000       0.00000000       0.00000000       0.00000000       0.00000000       0.00000000       0.00000000
H        2.80615512       0.00000000      24.58243212        1       1.00000000       0.00000000       0.00000000       0.00000000       0.00000000       0.00000000       0.00000000
H        1.40307756       2.43020162      24.58243212        1       1.00000000       0.00000000       0.00000000       0.00000000       0.00000000       0.00000000       0.00000000
H        4.20923268       2.43020162      24.58243212        1       1.00000000       0.00000000       0.00000000       0.00000000       0.00000000       0.00000000       0.00000000
H        2.80615879       1.62013675      17.77136826        0       1.00000000      -0.00000097      -0.00000012      -0.00000684       0.00000628      -0.00000032       0.00000063
H        1.40307826       4.05033668      17.77136723        0       1.00000000      -0.00000173      -0.00000503      -0.00000097       0.00000381      -0.00000730      -0.00000092
H        4.19930978       0.81021182      26.81076963        0       1.00000000      -0.00000298      -0.00000390      -0.00000483       0.00000616      -0.00000115      -0.00001136