18
Lattice="5.612310241546866 0.0 0.0 0.0 4.860403243099165 0.0 0.0 0.0 44.58243212332868" Properties=species:S:1:pos:R:3:tags:I:1:masses:R:1:momenta:R:3 KEmax=23.26679191048647 iter=99 volume=1216.1236359717223 ns_energy=13.848147105431226 last_walked_iter_clone=91 ns_P=0.0 config_n_global=99 ns_KE=6.415630472180878 pbc="T T F"
H        1.40307756       0.81006721      20.00000000        3       1.00000000       0.00000000       0.00000000       0.00000000
H        4.20923268       0.81006721      20.00000000        3       1.00000000       0.00000000       0.00000000       0.00000000
H        0.00000000       3.24026883      20.00000000        3       1.00000000       0.00000000       0.00000000       0.00000000
H        2.80615512       3.24026883      20.00000000        3       1.00000000       0.00000000       0.00000000       0.00000000
H        0.00000000       1.62013441      22.29121606        2       1.00000000       0.00000000       0.00000000       0.00000000
H        2.80615512       1.62013441      22.29121606        2       1.00000000       0.00000000       0.00000000       0.00000000
H        1.40307756       4.05033604      22.29121606        2       1.00000000       0.00000000       0.00000000       0.00000000
H        4.20923268       4.05033604      22.29121606        2       1.00000000       0.00000000       0.00000000       0.00000000
H        0.00000000       0.00000000      24.58243212        1       1.00000000       0.00000000       0.00000000       0.00000000
H        2.80615512       0.00000000      24.58243212        1       1.00000000       0.00000000       0.00000000       0.00000000
H        1.40307756       2.43020162      24.58243212        1       1.00000000       0.00000000       0.00000000       0.00000000
H        4.20923268       2.43020162      24.58243212        1       1.00000000       0.00000000       0.00000000       0.00000000
H        4.20641237       1.81757038       2.28204720        0       1.00000000       0.73693963      -0.57393575      -1.05719996
H        3.91404888       0.49697451      16.74728756        0       1.00000000      -0.28520037       0.07421118      -1.40058556
H        0.11878010       4.80569274      27.19347490        0       1.00000000       0.97554957       1.44164610       0.51851157
H        1.36813428       1.50791928      15.72675984        0       1.00000000      -0.29627781       0.55738001       0.32061587
H        2.45538897       4.80528881      32.22303262        0       1.00000000      -1.10602699       0.32593096      -0.07837451
H        2.26813804       2.71443306      14.70884306        0       1.00000000      -0.33087494       1.13413321       1.50368634
18
Lattice="5.612310241546866 0.0 0.0 0.0 4.860403243099165 0.0 0.0 0.0 44.58243212332868" Properties=species:S:1:pos:R:3:tags:I:1:masses:R:1:momenta:R:3 KEmax=23.26679191048647 iter=199 volume=1216.1236359717223 ns_energy=10.613723388004622 ns_P=0.0 config_n_global=199 ns_KE=6.296641800105806 pbc="T T F"
H        1.40307756       0.81006721      20.00000000        3       1.00000000       0.00000000       0.00000000       0.00000000
H        4.20923268       0.81006721      20.00000000        3       1.00000000       0.00000000       0.00000000       0.00000000
H        0.00000000       3.24026883      20.00000000        3       1.00000000       0.00000000       0.00000000       0.00000000
H        2.80615512       3.24026883      20.00000000        3       1.00000000       0.00000000       0.00000000       0.00000000
H        0.00000000       1.62013441      22.29121606        2       1.00000000       0.00000000       0.00000000       0.00000000
H        2.80615512       1.62013441      22.29121606        2       1.00000000       0.00000000       0.00000000       0.00000000
H        1.40307756       4.05033604      22.29121606        2       1.00000000       0.00000000       0.00000000       0.00000000
H        4.20923268       4.05033604      22.29121606        2       1.00000000       0.00000000       0.00000000       0.00000000
H        0.00000000       0.00000000      24.58243212        1       1.00000000       0.00000000       0.00000000       0.00000000
H        2.80615512       0.00000000      24.58243212        1       1.00000000       0.00000000       0.00000000       0.00000000
H        1.40307756       2.43020162      24.58243212        1       1.00000000       0.00000000       0.00000000       0.00000000
H        4.20923268       2.43020162      24.58243212        1       1.00000000       0.00000000       0.00000000       0.00000000
H        4.10950192       4.12731171       2.09571672        0       1.00000000      -0.13069158       0.05897863       1.46442870
H        2.88576200       4.51274664       3.51384312        0       1.00000000       0.29770159      -1.27834943      -0.35534222
H        4.09140683       0.78754257      41.40271299        0       1.00000000       0.76975097       0.25123301       0.86938419
H        1.27147205       0.16351198       8.41392112        0       1.00000000       0.83308684      -0.40959836       0.67311142
H        1.62407417       1.55632386      35.70164246        0       1.00000000       1.28126317       0.73127963      -1.33867806
H        0.91291127       4.13263611       3.47299993        0       1.00000000      -0.00445067      -1.30101386       0.43776006
18
Lattice="5.612310241546866 0.0 0.0 0.0 4.860403243099165 0.0 0.0 0.0 44.58243212332868" Properties=species:S:1:pos:R:3:tags:I:1:masses:R:1:momenta:R:3 KEmax=23.26679191048647 iter=299 volume=1216.1236359717223 ns_energy=7.896118615524962 last_walked_iter_clone=251 ns_P=0.0 config_n_global=299 ns_KE=15.438202112174377 pbc="T T F"
H        1.40307756       0.81006721      20.00000000        3       1.00000000       0.00000000       0.00000000       0.00000000
H        4.20923268       0.81006721      20.00000000        3       1.00000000       0.00000000       0.00000000       0.00000000
H        0.00000000       3.24026883      20.00000000        3       1.00000000       0.00000000       0.00000000       0.00000000
H        2.80615512       3.24026883      20.00000000        3       1.00000000       0.00000000       0.00000000       0.00000000
H        0.00000000       1.62013441      22.29121606        2       1.00000000       0.00000000       0.00000000       0.00000000
H        2.80615512       1.62013441      22.29121606        2       1.00000000       0.00000000       0.00000000       0.00000000
H        1.40307756       4.05033604      22.29121606        2       1.00000000       0.00000000       0.00000000       0.00000000
H        4.20923268       4.05033604      22.29121606        2       1.00000000       0.00000000       0.00000000       0.00000000
H        0.00000000       0.00000000      24.58243212        1       1.00000000       0.00000000       0.00000000       0.00000000
H        2.80615512       0.00000000      24.58243212        1       1.00000000       0.00000000       0.00000000       0.00000000
H        1.40307756       2.43020162      24.58243212        1       1.00000000       0.00000000       0.00000000       0.00000000
H        4.20923268       2.43020162      24.58243212        1       1.00000000       0.00000000       0.00000000       0.00000000
H        3.99313671       4.22966388      16.20795738        0       1.00000000       0.30568280       2.69422628      -0.01916603
H        1.85750928       2.29044297       6.20579853        0       1.00000000      -1.22123565       0.79674398      -1.00715008
H        4.36646810       4.09163887      36.83488648        0       1.00000000       2.15957259       0.82057011       1.38050938
H        1.44923980       3.89523632       0.49603240        0       1.00000000      -0.40957150      -0.82406823       2.07820338
H        4.47115408       4.03115930      30.35043747        0       1.00000000      -1.29360596      -0.12551831       1.94988131
H        1.63719753       4.25443546      11.39630332        0       1.00000000       0.44191860       1.25920935       0.83809341
18
Lattice="5.612310241546866 0.0 0.0 0.0 4.860403243099165 0.0 0.0 0.0 44.58243212332868" Properties=species:S:1:pos:R:3:tags:I:1:masses:R:1:momenta:R:3 KEmax=23.26679191048647 iter=399 volume=1216.1236359717223 ns_energy=5.800707343489722 last_walked_iter_clone=373 ns_P=0.0 config_n_global=399 ns_KE=13.927912032082016 pbc="T T F"
H        1.40307756       0.81006721      20.00000000        3       1.00000000       0.00000000       0.00000000       0.00000000
H        4.20923268       0.81006721      20.00000000        3       1.00000000       0.00000000       0.00000000       0.00000000
H        0.00000000       3.24026883      20.00000000        3       1.00000000       0.00000000       0.00000000       0.00000000
H        2.80615512       3.24026883      20.00000000        3       1.00000000       0.00000000       0.00000000       0.00000000
H        0.00000000       1.62013441      22.29121606        2       1.00000000       0.00000000       0.00000000       0.00000000
H        2.80615512       1.62013441      22.29121606        2       1.00000000       0.00000000       0.00000000       0.00000000
H        1.40307756       4.05033604      22.29121606        2       1.00000000       0.00000000       0.00000000       0.00000000
H        4.20923268       4.05033604      22.29121606        2       1.00000000       0.00000000       0.00000000       0.00000000
H        0.00000000       0.00000000      24.58243212        1       1.00000000       0.00000000       0.00000000       0.00000000
H        2.80615512       0.00000000      24.58243212        1       1.00000000       0.00000000       0.00000000       0.00000000
H        1.40307756       2.43020162      24.58243212        1       1.00000000       0.00000000       0.00000000       0.00000000
H        4.20923268       2.43020162      24.58243212        1       1.00000000       0.00000000       0.00000000       0.00000000
H        3.37657040       1.93502280      12.26845477        0       1.00000000       0.72664213      -1.65086856      -1.13715507
H        1.72792562       2.61491709      17.62976293        0       1.00000000       0.52738008      -1.20702172      -1.19549270
H        3.41462558       2.14986268      39.10377565        0       1.00000000      -1.56784306      -0.25193831      -2.46664896
H        0.68383632       2.62595824      10.42410715        0       1.00000000      -0.46180151      -1.99177110       1.18169040
H        2.78272397       0.55465976      35.76091925        0       1.00000000       0.86324222       0.75060519       1.54493792
H        4.97449699       4.39372576      15.21635286        0       1.00000000      -0.39699096      -0.75507518       1.24062768
18
Lattice="5.612310241546866 0.0 0.0 0.0 4.860403243099165 0.0 0.0 0.0 44.58243212332868" Properties=species:S:1:pos:R:3:tags:I:1:masses:R:1:momenta:R:3 KEmax=23.26679191048647 iter=499 volume=1216.1236359717223 ns_energy=3.8835891629975263 last_walked_iter_clone=424 ns_P=0.0 config_n_global=499 ns_KE=10.335896662007036 pbc="T T F"
H        1.40307756       0.81006721      20.00000000        3       1.00000000       0.00000000       0.00000000       0.00000000
H        4.20923268       0.81006721      20.00000000        3       1.00000000       0.00000000       0.00000000       0.00000000
H        0.00000000       3.24026883      20.00000000        3       1.00000000       0.00000000       0.00000000       0.00000000
H        2.80615512       3.24026883      20.00000000        3       1.00000000       0.00000000       0.00000000       0.00000000
H        0.00000000       1.62013441      22.29121606        2       1.00000000       0.00000000       0.00000000       0.00000000
H        2.80615512       1.62013441      22.29121606        2       1.00000000       0.00000000       0.00000000       0.00000000
H        1.40307756       4.05033604      22.29121606        2       1.00000000       0.00000000       0.00000000       0.00000000
H        4.20923268       4.05033604      22.29121606        2       1.00000000       0.00000000       0.00000000       0.00000000
H        0.00000000       0.00000000      24.58243212        1       1.00000000       0.00000000       0.00000000       0.00000000
H        2.80615512       0.00000000      24.58243212        1       1.00000000       0.00000000       0.00000000       0.00000000
H        1.40307756       2.43020162      24.58243212        1       1.00000000       0.00000000       0.00000000       0.00000000
H        4.20923268       2.43020162      24.58243212        1       1.00000000       0.00000000       0.00000000       0.00000000
H        2.01769868       1.65340576       2.10614096        0       1.00000000       0.23019452      -1.54798482      -0.86243369
H        1.26709720       0.94336357       4.04236181        0       1.00000000      -0.17142985       0.75340013      -0.00587741
H        3.37952305       1.73170901      37.32481547        0       1.00000000       0.96187322       0.57772621      -0.81465808
H        2.90741710       3.30082723       8.78875344        0       1.00000000       1.10150513      -0.72743892       0.64877308
H        2.59328841       4.30446004      41.95092136        0       1.00000000      -1.42042635      -0.40626434       1.57681684
H        1.88009271       2.55800651      12.52760588        0       1.00000000       1.07204181       2.64069592      -0.06431094
18
Lattice="5.612310241546866 0.0 0.0 0.0 4.860403243099165 0.0 0.0 0.0 44.58243212332868" Properties=species:S:1:pos:R:3:tags:I:1:masses:R:1:momenta:R:3 KEmax=23.26679191048647 iter=599 volume=1216.1236359717223 ns_energy=2.6345189644474365 last_walked_iter_clone=551 ns_P=0.0 config_n_global=599 ns_KE=10.181690795943908 pbc="T T F"
H        1.40307756       0.81006721      20.00000000        3       1.00000000       0.00000000       0.00000000       0.00000000
H        4.20923268       0.81006721      20.00000000        3       1.00000000       0.00000000       0.00000000       0.00000000
H        0.00000000       3.24026883      20.00000000        3       1.00000000       0.00000000       0.00000000       0.00000000
H        2.80615512       3.24026883      20.00000000        3       1.00000000       0.00000000       0.00000000       0.00000000
H        0.00000000       1.62013441      22.29121606        2       1.00000000       0.00000000       0.00000000       0.00000000
H        2.80615512       1.62013441      22.29121606        2       1.00000000       0.00000000       0.00000000       0.00000000
H        1.40307756       4.05033604      22.29121606        2       1.00000000       0.00000000       0.00000000       0.00000000
H        4.20923268       4.05033604      22.29121606        2       1.00000000       0.00000000       0.00000000       0.00000000
H        0.00000000       0.00000000      24.58243212        1       1.00000000       0.00000000       0.00000000       0.00000000
H        2.80615512       0.00000000      24.58243212        1       1.00000000       0.00000000       0.00000000       0.00000000
H        1.40307756       2.43020162      24.58243212        1       1.00000000       0.00000000       0.00000000       0.00000000
H        4.20923268       2.43020162      24.58243212        1       1.00000000       0.00000000       0.00000000       0.00000000
H        4.36700509       0.77235042       0.59768784        0       1.00000000       0.87982521      -0.33336754       0.00260935
H        4.28664667      -0.22873286       6.30445657        0       1.00000000       2.53510650      -1.23050602       1.44322259
H        5.54416878       4.27454572      42.67555035        0       1.00000000       1.11537665       0.06009619       0.91285718
H        3.16939586       4.08157594      10.25147684        0       1.00000000      -0.23585603       0.26852169      -1.77813809
H       -0.08377944       2.45376646      41.02132760        0       1.00000000      -1.11701074      -0.61176327       0.57691235
H        2.03753504       4.72216015      13.10092578        0       1.00000000      -0.94125903       0.50352747      -0.99476201
18
Lattice="5.612310241546866 0.0 0.0 0.0 4.860403243099165 0.0 0.0 0.0 44.58243212332868" Properties=species:S:1:pos:R:3:tags:I:1:masses:R:1:momenta:R:3 KEmax=23.26679191048647 iter=699 volume=1216.1236359717223 ns_energy=1.5755267078593587 last_walked_iter_clone=663 ns_P=0.0 config_n_global=699 ns_KE=9.498545770101538 pbc="T T F"
H        1.40307756       0.81006721      20.00000000        3       1.00000000       0.00000000       0.00000000       0.00000000
H        4.20923268       0.81006721      20.00000000        3       1.00000000       0.00000000       0.00000000       0.00000000
H        0.00000000       3.24026883      20.00000000        3       1.00000000       0.00000000       0.00000000       0.00000000
H        2.80615512       3.24026883      20.00000000        3       1.00000000       0.00000000       0.00000000       0.00000000
H        0.00000000       1.62013441      22.29121606        2       1.00000000       0.00000000       0.00000000       0.00000000
H        2.80615512       1.62013441      22.29121606        2       1.00000000       0.00000000       0.00000000       0.00000000
H        1.40307756       4.05033604      22.29121606        2       1.00000000       0.00000000       0.00000000       0.00000000
H        4.20923268       4.05033604      22.29121606        2       1.00000000       0.00000000       0.00000000       0.00000000
H        0.00000000       0.00000000      24.58243212        1       1.00000000       0.00000000       0.00000000       0.00000000
H        2.80615512       0.00000000      24.58243212        1       1.00000000       0.00000000       0.00000000       0.00000000
H        1.40307756       2.43020162      24.58243212        1       1.00000000       0.00000000       0.00000000       0.00000000
H        4.20923268       2.43020162      24.58243212        1       1.00000000       0.00000000       0.00000000       0.00000000
H        0.73050028       2.30906207       2.74490492        0       1.00000000       0.26128128       1.27949284      -0.43705646
H        4.50678965       1.48818152       8.05579869        0       1.00000000      -0.14963543      -0.17153495       1.75032475
H        1.36585308       1.75005544      35.35602411        0       1.00000000      -0.26516388       1.43984298      -1.40631359
H        4.75109865       1.49913912      17.25259820        0       1.00000000      -0.36440185      -1.58022763      -0.34077082
H        4.29639235       1.45324652      30.71255005        0       1.00000000      -0.47731219      -0.71275937       0.29302679
H        0.83833418       2.58088635       6.29487401        0       1.00000000       1.06429061      -1.30799365      -1.85816085
18
Lattice="5.612310241546866 0.0 0.0 0.0 4.860403243099165 0.0 0.0 0.0 44.58243212332868" Properties=species:S:1:pos:R:3:tags:I:1:masses:R:1:momenta:R:3 KEmax=23.26679191048647 iter=799 volume=1216.1236359717223 ns_energy=0.8552605477169758 last_walked_iter_clone=670 ns_P=0.0 config_n_global=799 ns_KE=8.620612969523664 pbc="T T F"
H        1.40307756       0.81006721      20.00000000        3       1.00000000       0.00000000       0.00000000       0.00000000
H        4.20923268       0.81006721      20.00000000        3       1.00000000       0.00000000       0.00000000       0.00000000
H        0.00000000       3.24026883      20.00000000        3       1.00000000       0.00000000       0.00000000       0.00000000
H        2.80615512       3.24026883      20.00000000        3       1.00000000       0.00000000       0.00000000       0.00000000
H        0.00000000       1.62013441      22.29121606        2       1.00000000       0.00000000       0.00000000       0.00000000
H        2.80615512       1.62013441      22.29121606        2       1.00000000       0.00000000       0.00000000       0.00000000
H        1.40307756       4.05033604      22.29121606        2       1.00000000       0.00000000       0.00000000       0.00000000
H        4.20923268       4.05033604      22.29121606        2       1.00000000       0.00000000       0.00000000       0.00000000
H        0.00000000       0.00000000      24.58243212        1       1.00000000       0.00000000       0.00000000       0.00000000
H        2.80615512       0.00000000      24.58243212        1       1.00000000       0.00000000       0.00000000       0.00000000
H        1.40307756       2.43020162      24.58243212        1       1.00000000       0.00000000       0.00000000       0.00000000
H        4.20923268       2.43020162      24.58243212        1       1.00000000       0.00000000       0.00000000       0.00000000
H        0.18987373       2.31976583       2.63790665        0       1.00000000      -0.10238769       0.15220639      -0.69494652
H        2.12624666       3.84502646       7.18354090        0       1.00000000      -1.64335646       1.43579881       0.25548296
H        5.08728057       3.12555632      41.83418626        0       1.00000000      -0.26399263      -0.90892851       0.46923646
H        4.83430219       4.89848426       7.36083297        0       1.00000000       0.19045833       1.56389028      -0.56699895
H        3.43392627       1.30149535      38.21651511        0       1.00000000      -1.81851006      -0.16786078       0.41027513
H        2.53277359       4.11878672       4.76577415        0       1.00000000      -1.42013228       1.08759245      -1.12896379
18
Lattice="5.612310241546866 0.0 0.0 0.0 4.860403243099165 0.0 0.0 0.0 44.58243212332868" Properties=species:S:1:pos:R:3:tags:I:1:masses:R:1:momenta:R:3 KEmax=23.26679191048647 iter=899 volume=1216.1236359717223 ns_energy=0.10999385974200258 last_walked_iter_clone=789 ns_P=0.0 config_n_global=899 ns_KE=6.941006738023371 pbc="T T F"
H        1.40307756       0.81006721      20.00000000        3       1.00000000       0.00000000       0.00000000       0.00000000
H        4.20923268       0.81006721      20.00000000        3       1.00000000       0.00000000       0.00000000       0.00000000
H        0.00000000       3.24026883      20.00000000        3       1.00000000       0.00000000       0.00000000       0.00000000
H        2.80615512       3.24026883      20.00000000        3       1.00000000       0.00000000       0.00000000       0.00000000
H        0.00000000       1.62013441      22.29121606        2       1.00000000       0.00000000       0.00000000       0.00000000
H        2.80615512       1.62013441      22.29121606        2       1.00000000       0.00000000       0.00000000       0.00000000
H        1.40307756       4.05033604      22.29121606        2       1.00000000       0.00000000       0.00000000       0.00000000
H        4.20923268       4.05033604      22.29121606        2       1.00000000       0.00000000       0.00000000       0.00000000
H        0.00000000       0.00000000      24.58243212        1       1.00000000       0.00000000       0.00000000       0.00000000
H        2.80615512       0.00000000      24.58243212        1       1.00000000       0.00000000       0.00000000       0.00000000
H        1.40307756       2.43020162      24.58243212        1       1.00000000       0.00000000       0.00000000       0.00000000
H        4.20923268       2.43020162      24.58243212        1       1.00000000       0.00000000       0.00000000       0.00000000
H        3.11109730       3.56325776       7.19626174        0       1.00000000       0.20874446      -0.38649741       0.53244454
H        1.34441238       4.57004144       2.36155386        0       1.00000000       0.25335157      -0.82883473       1.50364177
H        5.17313256       1.10762156      33.45368836        0       1.00000000       0.49352824      -1.75604126       1.85412433
H        4.40713650       3.85624436      11.23643944        0       1.00000000       0.50863238      -0.17935304       1.48018596
H        2.62842628       3.90827495      31.75526238        0       1.00000000       0.19262273       0.26918208       0.31920760
H        3.47061404       4.14099668       1.83101777        0       1.00000000      -0.40240770       0.19787597      -0.85678081
18
Lattice="5.612310241546866 0.0 0.0 0.0 4.860403243099165 0.0 0.0 0.0 44.58243212332868" Properties=species:S:1:pos:R:3:tags:I:1:masses:R:1:momenta:R:3 KEmax=23.26679191048647 iter=999 volume=1216.1236359717223 ns_energy=-0.4661301890497907 last_walked_iter_clone=908 ns_P=0.0 config_n_global=999 ns_KE=7.436088608695041 pbc="T T F"
H        1.40307756       0.81006721      20.00000000        3       1.00000000       0.00000000       0.00000000       0.00000000
H        4.20923268       0.81006721      20.00000000        3       1.00000000       0.00000000       0.00000000       0.00000000
H        0.00000000       3.24026883      20.00000000        3       1.00000000       0.00000000       0.00000000       0.00000000
H        2.80615512       3.24026883      20.00000000        3       1.00000000       0.00000000       0.00000000       0.00000000
H        0.00000000       1.62013441      22.29121606        2       1.00000000       0.00000000       0.00000000       0.00000000
H        2.80615512       1.62013441      22.29121606        2       1.00000000       0.00000000       0.00000000       0.00000000
H        1.40307756       4.05033604      22.29121606        2       1.00000000       0.00000000       0.00000000       0.00000000
H        4.20923268       4.05033604      22.29121606        2       1.00000000       0.00000000       0.00000000       0.00000000
H        0.00000000       0.00000000      24.58243212        1       1.00000000       0.00000000       0.00000000       0.00000000
H        2.80615512       0.00000000      24.58243212        1       1.00000000       0.00000000       0.00000000       0.00000000
H        1.40307756       2.43020162      24.58243212        1       1.00000000       0.00000000       0.00000000       0.00000000
H        4.20923268       2.43020162      24.58243212        1       1.00000000       0.00000000       0.00000000       0.00000000
H        4.25555092       3.63431350       9.49220017        0       1.00000000       1.61763510      -0.41274014       0.84269029
H        0.02849958       3.07967496      15.34617654        0       1.00000000      -0.43696204      -0.70150852      -1.36457711
H        1.31355744       3.38021262      43.40193434        0       1.00000000       1.23926205       0.96986383      -0.01681397
H        2.66962225       2.91238119       2.85845517        0       1.00000000       0.67731302       0.13673810       0.49118248
H        0.31831544       3.80509926      27.38350166        0       1.00000000      -0.56234005      -0.76043946      -2.00924587
H        5.12088693       0.86494220       3.28892954        0       1.00000000      -0.70687561      -0.21485311      -0.39627504
18
Lattice="5.612310241546866 0.0 0.0 0.0 4.860403243099165 0.0 0.0 0.0 44.58243212332868" Properties=species:S:1:pos:R:3:tags:I:1:masses:R:1:momenta:R:3 KEmax=23.26679191048647 iter=1099 volume=1216.1236359717223 ns_energy=-1.0651085143319388 last_walked_iter_clone=1040 ns_P=0.0 config_n_global=1099 ns_KE=6.1895199268864 pbc="T T F"
H        1.40307756       0.81006721      20.00000000        3       1.00000000       0.00000000       0.00000000       0.00000000
H        4.20923268       0.81006721      20.00000000        3       1.00000000       0.00000000       0.00000000       0.00000000
H        0.00000000       3.24026883      20.00000000        3       1.00000000       0.00000000       0.00000000       0.00000000
H        2.80615512       3.24026883      20.00000000        3       1.00000000       0.00000000       0.00000000       0.00000000
H        0.00000000       1.62013441      22.29121606        2       1.00000000       0.00000000       0.00000000       0.00000000
H        2.80615512       1.62013441      22.29121606        2       1.00000000       0.00000000       0.00000000       0.00000000
H        1.40307756       4.05033604      22.29121606        2       1.00000000       0.00000000       0.00000000       0.00000000
H        4.20923268       4.05033604      22.29121606        2       1.00000000       0.00000000       0.00000000       0.00000000
H        0.00000000       0.00000000      24.58243212        1       1.00000000       0.00000000       0.00000000       0.00000000
H        2.80615512       0.00000000      24.58243212        1       1.00000000       0.00000000       0.00000000       0.00000000
H        1.40307756       2.43020162      24.58243212        1       1.00000000       0.00000000       0.00000000       0.00000000
H        4.20923268       2.43020162      24.58243212        1       1.00000000       0.00000000       0.00000000       0.00000000
H        0.86155062       3.48152195      11.61101595        0       1.00000000      -0.81825424       0.35899907      -0.33455572
H        1.28026193       4.33535058       9.53212231        0       1.00000000       0.24450419       1.35826471       0.54352336
H        4.50276640       4.81087113      32.81370866        0       1.00000000      -1.08709583       0.57207119      -0.33606347
H        5.12353065       1.44453758      12.17516600        0       1.00000000      -0.91865832       0.86026502       0.09553161
H        0.91637932       1.59794436      31.84017741        0       1.00000000       0.28674019       1.16671455       1.08607143
H        3.09720375       1.36637014       1.33217694        0       1.00000000       0.05291800      -0.27351909      -1.83109403
18
Lattice="5.612310241546866 0.0 0.0 0.0 4.860403243099165 0.0 0.0 0.0 44.58243212332868" Properties=species:S:1:pos:R:3:tags:I:1:masses:R:1:momenta:R:3 KEmax=23.26679191048647 iter=1199 volume=1216.1236359717223 ns_energy=-1.5083164546248935 last_walked_iter_clone=1094 ns_P=0.0 config_n_global=1199 ns_KE=5.977070383723146 pbc="T T F"