21
Lattice="5.612310241546866 0.0 0.0 0.0 4.860403243099165 0.0 0.0 0.0 24.582432123328676" Properties=species:S:1:pos:R:3:tags:I:1:masses:R:1:momenta:R:3:forces:R:3 KEmax=27.14459056223422 iter=218994 volume=670.5618179858607 ns_energy=-14.089240458745396 last_walked_iter_clone=218256 energy=-14.089240458777407 stress="0.021481107195986584 6.42708836810009e-09 -2.230903363935635e-08 6.42708836810009e-09 0.021540839325110934 2.010450163616274e-08 -2.230903363935635e-08 2.010450163616274e-08 0.010717188108733403" pbc="T T F"
H        1.40307756       0.81006721      10.00000000        3       1.00000000       0.00000000       0.00000000       0.00000000       0.00000000       0.00000000       0.00000000
H        4.20923268       0.81006721      10.00000000        3       1.00000000       0.00000000       0.00000000       0.00000000       0.00000000       0.00000000       0.00000000
H        0.00000000       3.24026883      10.00000000        3       1.00000000       0.00000000       0.00000000       0.00000000       0.00000000       0.00000000       0.00000000
H        2.80615512       3.24026883      10.00000000        3       1.00000000       0.00000000       0.00000000       0.00000000       0.00000000       0.00000000       0.00000000
H        0.00000000       1.62013441      12.29121606        2       1.00000000       0.00000000       0.00000000       0.00000000       0.00000000       0.00000000       0.00000000
H        2.80615512       1.62013441      12.29121606        2       1.00000000       0.00000000       0.00000000       0.00000000       0.00000000       0.00000000       0.00000000
H        1.40307756       4.05033604      12.29121606        2       1.00000000       0.00000000       0.00000000       0.00000000       0.00000000       0.00000000       0.00000000
H        4.20923268       4.05033604      12.29121606        2       1.00000000       0.00000000       0.00000000       0.00000000       0.00000000       0.00000000       0.00000000
H        0.00000000       0.00000000      14.58243212        1       1.00000000       0.00000000       0.00000000       0.00000000       0.00000000       0.00000000       0.00000000
H        2.80615512       0.00000000      14.58243212        1       1.00000000       0.00000000       0.00000000       0.00000000       0.00000000       0.00000000       0.00000000
H        1.40307756       2.43020162      14.58243212        1       1.00000000       0.00000000       0.00000000       0.00000000       0.00000000       0.00000000       0.00000000
H        4.20923268       2.43020162      14.58243212        1       1.00000000       0.00000000       0.00000000       0.00000000       0.00000000       0.00000000       0.00000000
H        2.80615555       3.22367379      16.80071677        0       1.00000000       0.00000195      -0.00000093       0.00000213       0.00000467      -0.00000412      -0.00000280
H        1.39571466       0.81422784      16.79600121        0       1.00000000       0.00000286      -0.00000069      -0.00000035      -0.00000117       0.00000229       0.00000059
H        4.20923236       4.05033720       7.77136681        0       1.00000000       0.00000189      -0.00000140      -0.00000171      -0.00000095       0.00000421      -0.00000279
H        5.61231187       3.24942357      16.83184665        0       1.00000000      -0.00000125       0.00000281       0.00000107      -0.00000341      -0.00000701      -0.00000343
H        5.61231075       1.62013554       7.77136535        0       1.00000000       0.00000003       0.00000272       0.00000125      -0.00000176      -0.00000368      -0.00000233
H        4.21659668       0.81422746      16.79599812        0       1.00000000      -0.00000192      -0.00000233      -0.00000311      -0.00000032       0.00000840      -0.00000238
H        2.80615493       1.62013441       7.77136737        0       1.00000000      -0.00000158       0.00000127      -0.00000132       0.00000271      -0.00000457      -0.00000338
H        2.80616096       4.85901406      19.01468761        0       1.00000000       0.00000113       0.00000298      -0.00000049       0.00000117      -0.00000035       0.00000251
H        1.40307639       4.05033726       7.77136788        0       1.00000000      -0.00000155      -0.00000204      -0.00000037      -0.00000100       0.00000494       0.00000132
21
Lattice="5.612310241546866 0.0 0.0 0.0 4.860403243099165 0.0 0.0 0.0 24.582432123328676" Properties=species:S:1:pos:R:3:tags:I:1:masses:R:1:momenta:R:3:forces:R:3 KEmax=27.14459056223422 iter=218994 volume=670.5618179858607 ns_energy=-14.089240458743724 last_walked_iter_clone=218655 energy=-14.089240458777407 stress="0.021481107195986584 6.42708836810009e-09 -2.230903363935635e-08 6.42708836810009e-09 0.021540839325110934 2.010450163616274e-08 -2.230903363935635e-08 2.010450163616274e-08 0.010717188108733403" pbc="T T F"
H        1.40307756       0.81006721      10.00000000        3       1.00000000       0.00000000       0.00000000       0.00000000       0.00000000       0.00000000       0.00000000
H        4.20923268       0.81006721      10.00000000        3       1.00000000       0.00000000       0.00000000       0.00000000       0.00000000       0.00000000       0.00000000
H        0.00000000       3.24026883      10.00000000        3       1.00000000       0.00000000       0.00000000       0.00000000       0.00000000       0.00000000       0.00000000
H        2.80615512       3.24026883      10.00000000        3       1.00000000       0.00000000       0.00000000       0.00000000       0.00000000       0.00000000       0.00000000
H        0.00000000       1.62013441      12.29121606        2       1.00000000       0.00000000       0.00000000       0.00000000       0.00000000       0.00000000       0.00000000
H        2.80615512       1.62013441      12.29121606        2       1.00000000       0.00000000       0.00000000       0.00000000       0.00000000       0.00000000       0.00000000
H        1.40307756       4.05033604      12.29121606        2       1.00000000       0.00000000       0.00000000       0.00000000       0.00000000       0.00000000       0.00000000
H        4.20923268       4.05033604      12.29121606        2       1.00000000       0.00000000       0.00000000       0.00000000       0.00000000       0.00000000       0.00000000
H        0.00000000       0.00000000      14.58243212        1       1.00000000       0.00000000       0.00000000       0.00000000       0.00000000       0.00000000       0.00000000
H        2.80615512       0.00000000      14.58243212        1       1.00000000       0.00000000       0.00000000       0.00000000       0.00000000       0.00000000       0.00000000
H        1.40307756       2.43020162      14.58243212        1       1.00000000       0.00000000       0.00000000       0.00000000       0.00000000       0.00000000       0.00000000
H        4.20923268       2.43020162      14.58243212        1       1.00000000       0.00000000       0.00000000       0.00000000       0.00000000       0.00000000       0.00000000
H        2.80615462       3.22367198      16.80071694        0       1.00000000      -0.00000149      -0.00000093      -0.00000138       0.00000467      -0.00000412      -0.00000280
H        1.39571476       0.81422650      16.79600059        0       1.00000000      -0.00000211       0.00000031      -0.00000192      -0.00000117       0.00000229       0.00000059
H        4.20923172       4.05033692       7.77136873        0       1.00000000       0.00000285       0.00000219      -0.00000095      -0.00000095       0.00000421      -0.00000279
H        5.61230914       3.24942456      16.83184729        0       1.00000000       0.00000184       0.00000090       0.00000207      -0.00000341      -0.00000701      -0.00000343
H        5.61231027       1.62013492       7.77136795        0       1.00000000       0.00000182      -0.00000278      -0.00000264      -0.00000176      -0.00000368      -0.00000233
H        4.21659579       0.81422818      16.79600132        0       1.00000000      -0.00000002      -0.00000115      -0.00000176      -0.00000032       0.00000840      -0.00000238
H        2.80615534       1.62013656       7.77136777        0       1.00000000      -0.00000185       0.00000114      -0.00000067       0.00000271      -0.00000457      -0.00000338
H        2.80615368       4.85901328      19.01468960        0       1.00000000       0.00000197      -0.00000136       0.00000257       0.00000117      -0.00000035       0.00000251
H        1.40307863       4.05033653       7.77136762        0       1.00000000      -0.00000185       0.00000151       0.00000019      -0.00000100       0.00000494       0.00000132
21
Lattice="5.612310241546866 0.0 0.0 0.0 4.860403243099165 0.0 0.0 0.0 24.582432123328676" Properties=species:S:1:pos:R:3:tags:I:1:masses:R:1:momenta:R:3:forces:R:3 KEmax=27.14459056223422 iter=218994 volume=670.5618179858607 ns_energy=-14.089240458743966 last_walked_iter_clone=218917 energy=-14.089240458777407 stress="0.021481107195986584 6.42708836810009e-09 -2.230903363935635e-08 6.42708836810009e-09 0.021540839325110934 2.010450163616274e-08 -2.230903363935635e-08 2.010450163616274e-08 0.010717188108733403" pbc="T T F"
H        1.40307756       0.81006721      10.00000000        3       1.00000000       0.00000000       0.00000000       0.00000000       0.00000000       0.00000000       0.00000000
H        4.20923268       0.81006721      10.00000000        3       1.00000000       0.00000000       0.00000000       0.00000000       0.00000000       0.00000000       0.00000000
H        0.00000000       3.24026883      10.00000000        3       1.00000000       0.00000000       0.00000000       0.00000000       0.00000000       0.00000000       0.00000000
H        2.80615512       3.24026883      10.00000000        3       1.00000000       0.00000000       0.00000000       0.00000000       0.00000000       0.00000000       0.00000000
H        0.00000000       1.62013441      12.29121606        2       1.00000000       0.00000000       0.00000000       0.00000000       0.00000000       0.00000000       0.00000000
H        2.80615512       1.62013441      12.29121606        2       1.00000000       0.00000000       0.00000000       0.00000000       0.00000000       0.00000000       0.00000000
H        1.40307756       4.05033604      12.29121606        2       1.00000000       0.00000000       0.00000000       0.00000000       0.00000000       0.00000000       0.00000000
H        4.20923268       4.05033604      12.29121606        2       1.00000000       0.00000000       0.00000000       0.00000000       0.00000000       0.00000000       0.00000000
H        0.00000000       0.00000000      14.58243212        1       1.00000000       0.00000000       0.00000000       0.00000000       0.00000000       0.00000000       0.00000000
H        2.80615512       0.00000000      14.58243212        1       1.00000000       0.00000000       0.00000000       0.00000000       0.00000000       0.00000000       0.00000000
H        1.40307756       2.43020162      14.58243212        1       1.00000000       0.00000000       0.00000000       0.00000000       0.00000000       0.00000000       0.00000000
H        4.20923268       2.43020162      14.58243212        1       1.00000000       0.00000000       0.00000000       0.00000000       0.00000000       0.00000000       0.00000000
H        2.80615640       3.22367446      16.80071774        0       1.00000000      -0.00000087      -0.00000017      -0.00000108       0.00000467      -0.00000412      -0.00000280
H        1.39571539       0.81422747      16.79599970        0       1.00000000      -0.00000245       0.00000316      -0.00000298      -0.00000117       0.00000229       0.00000059
H        4.20923329       4.05033568       7.77136673        0       1.00000000      -0.00000136      -0.00000197       0.00000088      -0.00000095       0.00000421      -0.00000279
H        5.61231298       3.24942495      16.83184551        0       1.00000000       0.00000160      -0.00000174      -0.00000036      -0.00000341      -0.00000701      -0.00000343
H        0.00000006       1.62013593       7.77136669        0       1.00000000      -0.00000123       0.00000004      -0.00000139      -0.00000176      -0.00000368      -0.00000233
H        4.21659675       0.81422753      16.79599909        0       1.00000000       0.00000064      -0.00000087      -0.00000020      -0.00000032       0.00000840      -0.00000238
H        2.80615710       1.62013402       7.77136549        0       1.00000000       0.00000058       0.00000057       0.00000078       0.00000271      -0.00000457      -0.00000338
H        2.80615688       4.85901674      19.01468964        0       1.00000000      -0.00000425       0.00000081       0.00000203       0.00000117      -0.00000035       0.00000251
H        1.40307683       4.05033743       7.77136692        0       1.00000000      -0.00000038      -0.00000254       0.00000060      -0.00000100       0.00000494       0.00000132
21
Lattice="5.612310241546866 0.0 0.0 0.0 4.860403243099165 0.0 0.0 0.0 24.582432123328676" Properties=species:S:1:pos:R:3:tags:I:1:masses:R:1:momenta:R:3:forces:R:3 KEmax=27.14459056223422 iter=218994 volume=670.5618179858607 ns_energy=-14.089240458744428 last_walked_iter_clone=218658 energy=-14.089240458777407 stress="0.021481107195986584 6.42708836810009e-09 -2.230903363935635e-08 6.42708836810009e-09 0.021540839325110934 2.010450163616274e-08 -2.230903363935635e-08 2.010450163616274e-08 0.010717188108733403" pbc="T T F"
H        1.40307756       0.81006721      10.00000000        3       1.00000000       0.00000000       0.00000000       0.00000000       0.00000000       0.00000000       0.00000000
H        4.20923268       0.81006721      10.00000000        3       1.00000000       0.00000000       0.00000000       0.00000000       0.00000000       0.00000000       0.00000000
H        0.00000000       3.24026883      10.00000000        3       1.00000000       0.00000000       0.00000000       0.00000000       0.00000000       0.00000000       0.00000000
H        2.80615512       3.24026883      10.00000000        3       1.00000000       0.00000000       0.00000000       0.00000000       0.00000000       0.00000000       0.00000000
H        0.00000000       1.62013441      12.29121606        2       1.00000000       0.00000000       0.00000000       0.00000000       0.00000000       0.00000000       0.00000000
H        2.80615512       1.62013441      12.29121606        2       1.00000000       0.00000000       0.00000000       0.00000000       0.00000000       0.00000000       0.00000000
H        1.40307756       4.05033604      12.29121606        2       1.00000000       0.00000000       0.00000000       0.00000000       0.00000000       0.00000000       0.00000000
H        4.20923268       4.05033604      12.29121606        2       1.00000000       0.00000000       0.00000000       0.00000000       0.00000000       0.00000000       0.00000000
H        0.00000000       0.00000000      14.58243212        1       1.00000000       0.00000000       0.00000000       0.00000000       0.00000000       0.00000000       0.00000000
H        2.80615512       0.00000000      14.58243212        1       1.00000000       0.00000000       0.00000000       0.00000000       0.00000000       0.00000000       0.00000000
H        1.40307756       2.43020162      14.58243212        1       1.00000000       0.00000000       0.00000000       0.00000000       0.00000000       0.00000000       0.00000000
H        4.20923268       2.43020162      14.58243212        1       1.00000000       0.00000000       0.00000000       0.00000000       0.00000000       0.00000000       0.00000000
H        2.80615250       3.22367238      16.80071501        0       1.00000000       0.00000054       0.00000148      -0.00000036       0.00000467      -0.00000412      -0.00000280
H        1.39571278       0.81422788      16.79600060        0       1.00000000       0.00000062      -0.00000057       0.00000075      -0.00000117       0.00000229       0.00000059
H        4.20923091       4.05033542       7.77136617        0       1.00000000       0.00000023       0.00000087       0.00000269      -0.00000095       0.00000421      -0.00000279
H        5.61230830       3.24942381      16.83184584        0       1.00000000       0.00000178       0.00000120       0.00000183      -0.00000341      -0.00000701      -0.00000343
H        0.00000063       1.62013449       7.77136755        0       1.00000000      -0.00000143      -0.00000143      -0.00000120      -0.00000176      -0.00000368      -0.00000233
H        4.21659311       0.81422700      16.79599841        0       1.00000000      -0.00000199       0.00000309       0.00000016      -0.00000032       0.00000840      -0.00000238
H        2.80615502       1.62013584       7.77136575        0       1.00000000      -0.00000147      -0.00000071      -0.00000014       0.00000271      -0.00000457      -0.00000338
H        2.80615765       4.85901163      19.01468878        0       1.00000000      -0.00000118      -0.00000431       0.00000049       0.00000117      -0.00000035       0.00000251
H        1.40307773       4.05033604       7.77136604        0       1.00000000       0.00000052       0.00000011      -0.00000039      -0.00000100       0.00000494       0.00000132
21
Lattice="5.612310241546866 0.0 0.0 0.0 4.860403243099165 0.0 0.0 0.0 24.582432123328676" Properties=species:S:1:pos:R:3:tags:I:1:masses:R:1:momenta:R:3:forces:R:3 KEmax=27.14459056223422 iter=218994 volume=670.5618179858607 ns_energy=-14.089240458743577 last_walked_iter_clone=218657 energy=-14.089240458777407 stress="0.021481107195986584 6.42708836810009e-09 -2.230903363935635e-08 6.42708836810009e-09 0.021540839325110934 2.010450163616274e-08 -2.230903363935635e-08 2.010450163616274e-08 0.010717188108733403" pbc="T T F"
H        1.40307756       0.81006721      10.00000000        3       1.00000000       0.00000000       0.00000000       0.00000000       0.00000000       0.00000000       0.00000000
H        4.20923268       0.81006721      10.00000000        3       1.00000000       0.00000000       0.00000000       0.00000000       0.00000000       0.00000000       0.00000000
H        0.00000000       3.24026883      10.00000000        3       1.00000000       0.00000000       0.00000000       0.00000000       0.00000000       0.00000000       0.00000000
H        2.80615512       3.24026883      10.00000000        3       1.00000000       0.00000000       0.00000000       0.00000000       0.00000000       0.00000000       0.00000000
H        0.00000000       1.62013441      12.29121606        2       1.00000000       0.00000000       0.00000000       0.00000000       0.00000000       0.00000000       0.00000000
H        2.80615512       1.62013441      12.29121606        2       1.00000000       0.00000000       0.00000000       0.00000000       0.00000000       0.00000000       0.00000000
H        1.40307756       4.05033604      12.29121606        2       1.00000000       0.00000000       0.00000000       0.00000000       0.00000000       0.00000000       0.00000000
H        4.20923268       4.05033604      12.29121606        2       1.00000000       0.00000000       0.00000000       0.00000000       0.00000000       0.00000000       0.00000000
H        0.00000000       0.00000000      14.58243212        1       1.00000000       0.00000000       0.00000000       0.00000000       0.00000000       0.00000000       0.00000000
H        2.80615512       0.00000000      14.58243212        1       1.00000000       0.00000000       0.00000000       0.00000000       0.00000000       0.00000000       0.00000000
H        1.40307756       2.43020162      14.58243212        1       1.00000000       0.00000000       0.00000000       0.00000000       0.00000000       0.00000000       0.00000000
H        4.20923268       2.43020162      14.58243212        1       1.00000000       0.00000000       0.00000000       0.00000000       0.00000000       0.00000000       0.00000000
H        2.80615104       3.22367461      16.80071668        0       1.00000000      -0.00000045       0.00000081      -0.00000165       0.00000467      -0.00000412      -0.00000280
H        1.39571338       0.81422962      16.79599916        0       1.00000000       0.00000011       0.00000215       0.00000269      -0.00000117       0.00000229       0.00000059
H        4.20923283       4.05033691       7.77136693        0       1.00000000      -0.00000040       0.00000124       0.00000003      -0.00000095       0.00000421      -0.00000279
H        5.61230748       3.24942503      16.83184569        0       1.00000000       0.00000244      -0.00000133      -0.00000152      -0.00000341      -0.00000701      -0.00000343
H        0.00000084       1.62013432       7.77136927        0       1.00000000      -0.00000319      -0.00000170       0.00000182      -0.00000176      -0.00000368      -0.00000233
H        4.21659378       0.81422810      16.79600016        0       1.00000000      -0.00000210      -0.00000062      -0.00000108      -0.00000032       0.00000840      -0.00000238
H        2.80615633       1.62013342       7.77136635        0       1.00000000       0.00000038      -0.00000156       0.00000049       0.00000271      -0.00000457      -0.00000338
H        2.80615299       4.85901253      19.01468918        0       1.00000000       0.00000172      -0.00000317      -0.00000099       0.00000117      -0.00000035       0.00000251
H        1.40307849       4.05033687       7.77136650        0       1.00000000      -0.00000082      -0.00000190       0.00000172      -0.00000100       0.00000494       0.00000132
21
Lattice="5.612310241546866 0.0 0.0 0.0 4.860403243099165 0.0 0.0 0.0 24.582432123328676" Properties=species:S:1:pos:R:3:tags:I:1:masses:R:1:momenta:R:3:forces:R:3 KEmax=27.14459056223422 iter=218994 volume=670.5618179858607 ns_energy=-14.089240458744273 last_walked_iter_clone=218910 energy=-14.089240458777407 stress="0.021481107195986584 6.42708836810009e-09 -2.230903363935635e-08 6.42708836810009e-09 0.021540839325110934 2.010450163616274e-08 -2.230903363935635e-08 2.010450163616274e-08 0.010717188108733403" pbc="T T F"
H        1.40307756       0.81006721      10.00000000        3       1.00000000       0.00000000       0.00000000       0.00000000       0.00000000       0.00000000       0.00000000
H        4.20923268       0.81006721      10.00000000        3       1.00000000       0.00000000       0.00000000       0.00000000       0.00000000       0.00000000       0.00000000
H        0.00000000       3.24026883      10.00000000        3       1.00000000       0.00000000       0.00000000       0.00000000       0.00000000       0.00000000       0.00000000
H        2.80615512       3.24026883      10.00000000        3       1.00000000       0.00000000       0.00000000       0.00000000       0.00000000       0.00000000       0.00000000
H        0.00000000       1.62013441      12.29121606        2       1.00000000       0.00000000       0.00000000       0.00000000       0.00000000       0.00000000       0.00000000
H        2.80615512       1.62013441      12.29121606        2       1.00000000       0.00000000       0.00000000       0.00000000       0.00000000       0.00000000       0.00000000
H        1.40307756       4.05033604      12.29121606        2       1.00000000       0.00000000       0.00000000       0.00000000       0.00000000       0.00000000       0.00000000
H        4.20923268       4.05033604      12.29121606        2       1.00000000       0.00000000       0.00000000       0.00000000       0.00000000       0.00000000       0.00000000
H        0.00000000       0.00000000      14.58243212        1       1.00000000       0.00000000       0.00000000       0.00000000       0.00000000       0.00000000       0.00000000
H        2.80615512       0.00000000      14.58243212        1       1.00000000       0.00000000       0.00000000       0.00000000       0.00000000       0.00000000       0.00000000
H        1.40307756       2.43020162      14.58243212        1       1.00000000       0.00000000       0.00000000       0.00000000       0.00000000       0.00000000       0.00000000
H        4.20923268       2.43020162      14.58243212        1       1.00000000       0.00000000       0.00000000       0.00000000       0.00000000       0.00000000       0.00000000
H        2.80615608       3.22367340      16.80071697        0       1.00000000      -0.00000133       0.00000183      -0.00000018       0.00000467      -0.00000412      -0.00000280
H        1.39571353       0.81422943      16.79600058        0       1.00000000       0.00000062       0.00000156       0.00000085      -0.00000117       0.00000229       0.00000059
H        4.20923223       4.05033556       7.77136660        0       1.00000000      -0.00000020       0.00000014       0.00000264      -0.00000095       0.00000421      -0.00000279
H       -0.00000254       3.24942533      16.83184589        0       1.00000000      -0.00000063      -0.00000124      -0.00000073      -0.00000341      -0.00000701      -0.00000343
H        5.61231005       1.62013424       7.77136797        0       1.00000000       0.00000361      -0.00000014       0.00000003      -0.00000176      -0.00000368      -0.00000233
H        4.21659271       0.81422882      16.79599942        0       1.00000000       0.00000211       0.00000072      -0.00000203      -0.00000032       0.00000840      -0.00000238
H        2.80615364       1.62013356       7.77136673        0       1.00000000      -0.00000221       0.00000041       0.00000021       0.00000271      -0.00000457      -0.00000338
H        2.80615618       4.85901561      19.01468901        0       1.00000000      -0.00000154       0.00000073       0.00000056       0.00000117      -0.00000035       0.00000251
H        1.40307772       4.05033579       7.77136674        0       1.00000000       0.00000084      -0.00000277       0.00000158      -0.00000100       0.00000494       0.00000132
21
Lattice="5.612310241546866 0.0 0.0 0.0 4.860403243099165 0.0 0.0 0.0 24.582432123328676" Properties=species:S:1:pos:R:3:tags:I:1:masses:R:1:momenta:R:3:forces:R:3 KEmax=27.14459056223422 iter=218994 volume=670.5618179858607 ns_energy=-14.089240458743792 last_walked_iter_clone=218798 energy=-14.089240458777407 stress="0.021481107195986584 6.42708836810009e-09 -2.230903363935635e-08 6.42708836810009e-09 0.021540839325110934 2.010450163616274e-08 -2.230903363935635e-08 2.010450163616274e-08 0.010717188108733403" pbc="T T F"
H        1.40307756       0.81006721      10.00000000        3       1.00000000       0.00000000       0.00000000       0.00000000       0.00000000       0.00000000       0.00000000
H        4.20923268       0.81006721      10.00000000        3       1.00000000       0.00000000       0.00000000       0.00000000       0.00000000       0.00000000       0.00000000
H        0.00000000       3.24026883      10.00000000        3       1.00000000       0.00000000       0.00000000       0.00000000       0.00000000       0.00000000       0.00000000
H        2.80615512       3.24026883      10.00000000        3       1.00000000       0.00000000       0.00000000       0.00000000       0.00000000       0.00000000       0.00000000
H        0.00000000       1.62013441      12.29121606        2       1.00000000       0.00000000       0.00000000       0.00000000       0.00000000       0.00000000       0.00000000
H        2.80615512       1.62013441      12.29121606        2       1.00000000       0.00000000       0.00000000       0.00000000       0.00000000       0.00000000       0.00000000
H        1.40307756       4.05033604      12.29121606        2       1.00000000       0.00000000       0.00000000       0.00000000       0.00000000       0.00000000       0.00000000
H        4.20923268       4.05033604      12.29121606        2       1.00000000       0.00000000       0.00000000       0.00000000       0.00000000       0.00000000       0.00000000
H        0.00000000       0.00000000      14.58243212        1       1.00000000       0.00000000       0.00000000       0.00000000       0.00000000       0.00000000       0.00000000
H        2.80615512       0.00000000      14.58243212        1       1.00000000       0.00000000       0.00000000       0.00000000       0.00000000       0.00000000       0.00000000
H        1.40307756       2.43020162      14.58243212        1       1.00000000       0.00000000       0.00000000       0.00000000       0.00000000       0.00000000       0.00000000
H        4.20923268       2.43020162      14.58243212        1       1.00000000       0.00000000       0.00000000       0.00000000       0.00000000       0.00000000       0.00000000
H        2.80615556       3.22367614      16.80071546        0       1.00000000      -0.00000226       0.00000030       0.00000033       0.00000467      -0.00000412      -0.00000280
H        1.39571460       0.81422785      16.79599990        0       1.00000000      -0.00000088       0.00000169      -0.00000076      -0.00000117       0.00000229       0.00000059
H        4.20923137       4.05033697       7.77136552        0       1.00000000       0.00000039      -0.00000063       0.00000152      -0.00000095       0.00000421      -0.00000279
H       -0.00000106       3.24942582      16.83184628        0       1.00000000       0.00000143       0.00000024      -0.00000019      -0.00000341      -0.00000701      -0.00000343
H       -0.00000226       1.62013538       7.77136684        0       1.00000000      -0.00000097       0.00000085      -0.00000092      -0.00000176      -0.00000368      -0.00000233
H        4.21659649       0.81422939      16.79600064        0       1.00000000      -0.00000272       0.00000073      -0.00000181      -0.00000032       0.00000840      -0.00000238