21
Lattice="5.612310241546866 0.0 0.0 0.0 4.860403243099165 0.0 0.0 0.0 24.582432123328676" Properties=species:S:1:pos:R:3:tags:I:1:masses:R:1:momenta:R:3:forces:R:3 KEmax=27.14459056223422 iter=239999 volume=670.5618179858607 ns_energy=-14.089240458796459 last_walked_iter_clone=238545 energy=-14.089240458803411 stress="0.021481125199199515 -6.304178327342249e-09 -4.048322697851969e-09 -6.304178327342249e-09 0.021540856768540166 -3.3460089643508112e-09 -4.048322697851969e-09 -3.3460089643508112e-09 0.010717258611322833" pbc="T T F"
H        1.40307756       0.81006721      10.00000000        3       1.00000000       0.00000000       0.00000000       0.00000000       0.00000000       0.00000000       0.00000000
H        4.20923268       0.81006721      10.00000000        3       1.00000000       0.00000000       0.00000000       0.00000000       0.00000000       0.00000000       0.00000000
H        0.00000000       3.24026883      10.00000000        3       1.00000000       0.00000000       0.00000000       0.00000000       0.00000000       0.00000000       0.00000000
H        2.80615512       3.24026883      10.00000000        3       1.00000000       0.00000000       0.00000000       0.00000000       0.00000000       0.00000000       0.00000000
H        0.00000000       1.62013441      12.29121606        2       1.00000000       0.00000000       0.00000000       0.00000000       0.00000000       0.00000000       0.00000000
H        2.80615512       1.62013441      12.29121606        2       1.00000000       0.00000000       0.00000000       0.00000000       0.00000000       0.00000000       0.00000000
H        1.40307756       4.05033604      12.29121606        2       1.00000000       0.00000000       0.00000000       0.00000000       0.00000000       0.00000000       0.00000000
H        4.20923268       4.05033604      12.29121606        2       1.00000000       0.00000000       0.00000000       0.00000000       0.00000000       0.00000000       0.00000000
H        0.00000000       0.00000000      14.58243212        1       1.00000000       0.00000000       0.00000000       0.00000000       0.00000000       0.00000000       0.00000000
H        2.80615512       0.00000000      14.58243212        1       1.00000000       0.00000000       0.00000000       0.00000000       0.00000000       0.00000000       0.00000000
H        1.40307756       2.43020162      14.58243212        1       1.00000000       0.00000000       0.00000000       0.00000000       0.00000000       0.00000000       0.00000000
H        4.20923268       2.43020162      14.58243212        1       1.00000000       0.00000000       0.00000000       0.00000000       0.00000000       0.00000000       0.00000000
H        2.80615534       3.22367453      16.80071714        0       1.00000000      -0.00000034      -0.00000095       0.00000003      -0.00000035       0.00000103      -0.00000225
H        1.39571516       0.81422903      16.79600008        0       1.00000000      -0.00000013      -0.00000102       0.00000036       0.00000249      -0.00000460      -0.00000081
H        4.20923176       4.05033605       7.77136699        0       1.00000000       0.00000040      -0.00000071      -0.00000070       0.00000248       0.00000164      -0.00000009
H        5.61231059       3.24942616      16.83184687        0       1.00000000      -0.00000181      -0.00000013      -0.00000177       0.00000077       0.00000336       0.00000073
H       -0.00000013       1.62013445       7.77136750        0       1.00000000       0.00000090      -0.00000092       0.00000088      -0.00000055      -0.00000092       0.00000165
H        4.21659655       0.81422916      16.79599986        0       1.00000000       0.00000098      -0.00000140      -0.00000037      -0.00000145       0.00000095      -0.00000167
H        2.80615490       1.62013365       7.77136708        0       1.00000000       0.00000017       0.00000039      -0.00000017       0.00000106      -0.00000207      -0.00000233
H        2.80615463       4.85901490      19.01468908        0       1.00000000       0.00000274      -0.00000030      -0.00000022      -0.00000013      -0.00000016      -0.00000197
H        1.40307650       4.05033538       7.77136673        0       1.00000000       0.00000051       0.00000168       0.00000086      -0.00000235       0.00000076      -0.00000174
21
Lattice="5.612310241546866 0.0 0.0 0.0 4.860403243099165 0.0 0.0 0.0 24.582432123328676" Properties=species:S:1:pos:R:3:tags:I:1:masses:R:1:momenta:R:3:forces:R:3 KEmax=27.14459056223422 iter=239999 volume=670.5618179858607 ns_energy=-14.089240458796068 last_walked_iter_clone=238564 energy=-14.089240458803411 stress="0.021481125199199515 -6.304178327342249e-09 -4.048322697851969e-09 -6.304178327342249e-09 0.021540856768540166 -3.3460089643508112e-09 -4.048322697851969e-09 -3.3460089643508112e-09 0.010717258611322833" pbc="T T F"
H        1.40307756       0.81006721      10.00000000        3       1.00000000       0.00000000       0.00000000       0.00000000       0.00000000       0.00000000       0.00000000
H        4.20923268       0.81006721      10.00000000        3       1.00000000       0.00000000       0.00000000       0.00000000       0.00000000       0.00000000       0.00000000
H        0.00000000       3.24026883      10.00000000        3       1.00000000       0.00000000       0.00000000       0.00000000       0.00000000       0.00000000       0.00000000
H        2.80615512       3.24026883      10.00000000        3       1.00000000       0.00000000       0.00000000       0.00000000       0.00000000       0.00000000       0.00000000
H        0.00000000       1.62013441      12.29121606        2       1.00000000       0.00000000       0.00000000       0.00000000       0.00000000       0.00000000       0.00000000
H        2.80615512       1.62013441      12.29121606        2       1.00000000       0.00000000       0.00000000       0.00000000       0.00000000       0.00000000       0.00000000
H        1.40307756       4.05033604      12.29121606        2       1.00000000       0.00000000       0.00000000       0.00000000       0.00000000       0.00000000       0.00000000
H        4.20923268       4.05033604      12.29121606        2       1.00000000       0.00000000       0.00000000       0.00000000       0.00000000       0.00000000       0.00000000
H        0.00000000       0.00000000      14.58243212        1       1.00000000       0.00000000       0.00000000       0.00000000       0.00000000       0.00000000       0.00000000
H        2.80615512       0.00000000      14.58243212        1       1.00000000       0.00000000       0.00000000       0.00000000       0.00000000       0.00000000       0.00000000
H        1.40307756       2.43020162      14.58243212        1       1.00000000       0.00000000       0.00000000       0.00000000       0.00000000       0.00000000       0.00000000
H        4.20923268       2.43020162      14.58243212        1       1.00000000       0.00000000       0.00000000       0.00000000       0.00000000       0.00000000       0.00000000
H        2.80615563       3.22367451      16.80071669        0       1.00000000      -0.00000019      -0.00000027       0.00000167      -0.00000035       0.00000103      -0.00000225
H        1.39571457       0.81422877      16.79600016        0       1.00000000      -0.00000028       0.00000047      -0.00000013       0.00000249      -0.00000460      -0.00000081
H        4.20923344       4.05033699       7.77136826        0       1.00000000       0.00000066       0.00000071      -0.00000053       0.00000248       0.00000164      -0.00000009
H        5.61231038       3.24942544      16.83184656        0       1.00000000      -0.00000029      -0.00000066       0.00000193       0.00000077       0.00000336       0.00000073
H        0.00000040       1.62013543       7.77136741        0       1.00000000      -0.00000149      -0.00000067       0.00000008      -0.00000055      -0.00000092       0.00000165
H        4.21659597       0.81422841      16.79599876        0       1.00000000       0.00000057      -0.00000063      -0.00000012      -0.00000145       0.00000095      -0.00000167
H        2.80615462       1.62013442       7.77136653        0       1.00000000      -0.00000088      -0.00000153       0.00000091       0.00000106      -0.00000207      -0.00000233
H        2.80615732       4.85901333      19.01468768        0       1.00000000      -0.00000122       0.00000087      -0.00000080      -0.00000013      -0.00000016      -0.00000197
H        1.40307803       4.05033651       7.77136751        0       1.00000000       0.00000116       0.00000104      -0.00000003      -0.00000235       0.00000076      -0.00000174
21
Lattice="5.612310241546866 0.0 0.0 0.0 4.860403243099165 0.0 0.0 0.0 24.582432123328676" Properties=species:S:1:pos:R:3:tags:I:1:masses:R:1:momenta:R:3:forces:R:3 KEmax=27.14459056223422 iter=239999 volume=670.5618179858607 ns_energy=-14.08924045879637 last_walked_iter_clone=239993 energy=-14.089240458803411 stress="0.021481125199199515 -6.304178327342249e-09 -4.048322697851969e-09 -6.304178327342249e-09 0.021540856768540166 -3.3460089643508112e-09 -4.048322697851969e-09 -3.3460089643508112e-09 0.010717258611322833" pbc="T T F"
H        1.40307756       0.81006721      10.00000000        3       1.00000000       0.00000000       0.00000000       0.00000000       0.00000000       0.00000000       0.00000000
H        4.20923268       0.81006721      10.00000000        3       1.00000000       0.00000000       0.00000000       0.00000000       0.00000000       0.00000000       0.00000000
H        0.00000000       3.24026883      10.00000000        3       1.00000000       0.00000000       0.00000000       0.00000000       0.00000000       0.00000000       0.00000000
H        2.80615512       3.24026883      10.00000000        3       1.00000000       0.00000000       0.00000000       0.00000000       0.00000000       0.00000000       0.00000000
H        0.00000000       1.62013441      12.29121606        2       1.00000000       0.00000000       0.00000000       0.00000000       0.00000000       0.00000000       0.00000000
H        2.80615512       1.62013441      12.29121606        2       1.00000000       0.00000000       0.00000000       0.00000000       0.00000000       0.00000000       0.00000000
H        1.40307756       4.05033604      12.29121606        2       1.00000000       0.00000000       0.00000000       0.00000000       0.00000000       0.00000000       0.00000000
H        4.20923268       4.05033604      12.29121606        2       1.00000000       0.00000000       0.00000000       0.00000000       0.00000000       0.00000000       0.00000000
H        0.00000000       0.00000000      14.58243212        1       1.00000000       0.00000000       0.00000000       0.00000000       0.00000000       0.00000000       0.00000000
H        2.80615512       0.00000000      14.58243212        1       1.00000000       0.00000000       0.00000000       0.00000000       0.00000000       0.00000000       0.00000000
H        1.40307756       2.43020162      14.58243212        1       1.00000000       0.00000000       0.00000000       0.00000000       0.00000000       0.00000000       0.00000000
H        4.20923268       2.43020162      14.58243212        1       1.00000000       0.00000000       0.00000000       0.00000000       0.00000000       0.00000000       0.00000000
H        2.80615493       3.22367454      16.80071600        0       1.00000000       0.00000031      -0.00000135       0.00000032      -0.00000035       0.00000103      -0.00000225
H        1.39571410       0.81422917      16.79599893        0       1.00000000      -0.00000036      -0.00000066      -0.00000004       0.00000249      -0.00000460      -0.00000081
H        4.20923260       4.05033660       7.77136687        0       1.00000000       0.00000087       0.00000227       0.00000026       0.00000248       0.00000164      -0.00000009
H       -0.00000045       3.24942518      16.83184735        0       1.00000000       0.00000069      -0.00000093      -0.00000035       0.00000077       0.00000336       0.00000073
H       -0.00000057       1.62013506       7.77136700        0       1.00000000      -0.00000031      -0.00000090      -0.00000006      -0.00000055      -0.00000092       0.00000165
H        4.21659623       0.81422869      16.79599915        0       1.00000000      -0.00000057      -0.00000081       0.00000039      -0.00000145       0.00000095      -0.00000167
H        2.80615459       1.62013361       7.77136720        0       1.00000000      -0.00000126       0.00000163      -0.00000177       0.00000106      -0.00000207      -0.00000233
H        2.80615506       4.85901437      19.01468874        0       1.00000000      -0.00000037       0.00000017       0.00000038      -0.00000013      -0.00000016      -0.00000197
H        1.40307812       4.05033653       7.77136679        0       1.00000000      -0.00000053      -0.00000207      -0.00000064      -0.00000235       0.00000076      -0.00000174
21
Lattice="5.612310241546866 0.0 0.0 0.0 4.860403243099165 0.0 0.0 0.0 24.582432123328676" Properties=species:S:1:pos:R:3:tags:I:1:masses:R:1:momenta:R:3:forces:R:3 KEmax=27.14459056223422 iter=239999 volume=670.5618179858607 ns_energy=-14.089240458796302 last_walked_iter_clone=239938 energy=-14.089240458803411 stress="0.021481125199199515 -6.304178327342249e-09 -4.048322697851969e-09 -6.304178327342249e-09 0.021540856768540166 -3.3460089643508112e-09 -4.048322697851969e-09 -3.3460089643508112e-09 0.010717258611322833" pbc="T T F"
H        1.40307756       0.81006721      10.00000000        3       1.00000000       0.00000000       0.00000000       0.00000000       0.00000000       0.00000000       0.00000000
H        4.20923268       0.81006721      10.00000000        3       1.00000000       0.00000000       0.00000000       0.00000000       0.00000000       0.00000000       0.00000000
H        0.00000000       3.24026883      10.00000000        3       1.00000000       0.00000000       0.00000000       0.00000000       0.00000000       0.00000000       0.00000000
H        2.80615512       3.24026883      10.00000000        3       1.00000000       0.00000000       0.00000000       0.00000000       0.00000000       0.00000000       0.00000000
H        0.00000000       1.62013441      12.29121606        2       1.00000000       0.00000000       0.00000000       0.00000000       0.00000000       0.00000000       0.00000000
H        2.80615512       1.62013441      12.29121606        2       1.00000000       0.00000000       0.00000000       0.00000000       0.00000000       0.00000000       0.00000000
H        1.40307756       4.05033604      12.29121606        2       1.00000000       0.00000000       0.00000000       0.00000000       0.00000000       0.00000000       0.00000000
H        4.20923268       4.05033604      12.29121606        2       1.00000000       0.00000000       0.00000000       0.00000000       0.00000000       0.00000000       0.00000000
H        0.00000000       0.00000000      14.58243212        1       1.00000000       0.00000000       0.00000000       0.00000000       0.00000000       0.00000000       0.00000000
H        2.80615512       0.00000000      14.58243212        1       1.00000000       0.00000000       0.00000000       0.00000000       0.00000000       0.00000000       0.00000000
H        1.40307756       2.43020162      14.58243212        1       1.00000000       0.00000000       0.00000000       0.00000000       0.00000000       0.00000000       0.00000000
H        4.20923268       2.43020162      14.58243212        1       1.00000000       0.00000000       0.00000000       0.00000000       0.00000000       0.00000000       0.00000000
H        2.80615510       3.22367488      16.80071698        0       1.00000000       0.00000083       0.00000111       0.00000167      -0.00000035       0.00000103      -0.00000225
H        1.39571395       0.81422950      16.79599945        0       1.00000000       0.00000006       0.00000026       0.00000004       0.00000249      -0.00000460      -0.00000081
H        4.20923348       4.05033720       7.77136809        0       1.00000000       0.00000121      -0.00000063       0.00000005       0.00000248       0.00000164      -0.00000009
H        5.61230966       3.24942592      16.83184714        0       1.00000000      -0.00000046      -0.00000141       0.00000124       0.00000077       0.00000336       0.00000073
H        5.61231183       1.62013520       7.77136700        0       1.00000000      -0.00000134      -0.00000087      -0.00000029      -0.00000055      -0.00000092       0.00000165
H        4.21659567       0.81422874      16.79599931        0       1.00000000       0.00000145       0.00000040      -0.00000002      -0.00000145       0.00000095      -0.00000167
H        2.80615564       1.62013445       7.77136673        0       1.00000000      -0.00000034      -0.00000033       0.00000027       0.00000106      -0.00000207      -0.00000233
H        2.80615469       4.85901409      19.01468776        0       1.00000000      -0.00000011       0.00000093      -0.00000132      -0.00000013      -0.00000016      -0.00000197
H        1.40307851       4.05033615       7.77136780        0       1.00000000       0.00000086       0.00000118       0.00000020      -0.00000235       0.00000076      -0.00000174
21
Lattice="5.612310241546866 0.0 0.0 0.0 4.860403243099165 0.0 0.0 0.0 24.582432123328676" Properties=species:S:1:pos:R:3:tags:I:1:masses:R:1:momenta:R:3:forces:R:3 KEmax=27.14459056223422 iter=239999 volume=670.5618179858607 ns_energy=-14.089240458796654 last_walked_iter_clone=239975 energy=-14.089240458803411 stress="0.021481125199199515 -6.304178327342249e-09 -4.048322697851969e-09 -6.304178327342249e-09 0.021540856768540166 -3.3460089643508112e-09 -4.048322697851969e-09 -3.3460089643508112e-09 0.010717258611322833" pbc="T T F"
H        1.40307756       0.81006721      10.00000000        3       1.00000000       0.00000000       0.00000000       0.00000000       0.00000000       0.00000000       0.00000000
H        4.20923268       0.81006721      10.00000000        3       1.00000000       0.00000000       0.00000000       0.00000000       0.00000000       0.00000000       0.00000000
H        0.00000000       3.24026883      10.00000000        3       1.00000000       0.00000000       0.00000000       0.00000000       0.00000000       0.00000000       0.00000000
H        2.80615512       3.24026883      10.00000000        3       1.00000000       0.00000000       0.00000000       0.00000000       0.00000000       0.00000000       0.00000000
H        0.00000000       1.62013441      12.29121606        2       1.00000000       0.00000000       0.00000000       0.00000000       0.00000000       0.00000000       0.00000000
H        2.80615512       1.62013441      12.29121606        2       1.00000000       0.00000000       0.00000000       0.00000000       0.00000000       0.00000000       0.00000000
H        1.40307756       4.05033604      12.29121606        2       1.00000000       0.00000000       0.00000000       0.00000000       0.00000000       0.00000000       0.00000000
H        4.20923268       4.05033604      12.29121606        2       1.00000000       0.00000000       0.00000000       0.00000000       0.00000000       0.00000000       0.00000000
H        0.00000000       0.00000000      14.58243212        1       1.00000000       0.00000000       0.00000000       0.00000000       0.00000000       0.00000000       0.00000000
H        2.80615512       0.00000000      14.58243212        1       1.00000000       0.00000000       0.00000000       0.00000000       0.00000000       0.00000000       0.00000000
H        1.40307756       2.43020162      14.58243212        1       1.00000000       0.00000000       0.00000000       0.00000000       0.00000000       0.00000000       0.00000000
H        4.20923268       2.43020162      14.58243212        1       1.00000000       0.00000000       0.00000000       0.00000000       0.00000000       0.00000000       0.00000000
H        2.80615522       3.22367404      16.80071772        0       1.00000000       0.00000084       0.00000079       0.00000076      -0.00000035       0.00000103      -0.00000225
H        1.39571469       0.81422838      16.79599901        0       1.00000000       0.00000028       0.00000142      -0.00000125       0.00000249      -0.00000460      -0.00000081
H        4.20923240       4.05033634       7.77136773        0       1.00000000      -0.00000027      -0.00000047      -0.00000045       0.00000248       0.00000164      -0.00000009
H        0.00000099       3.24942521      16.83184739        0       1.00000000       0.00000146      -0.00000020       0.00000055       0.00000077       0.00000336       0.00000073
H       -0.00000089       1.62013453       7.77136704        0       1.00000000       0.00000047       0.00000161      -0.00000008      -0.00000055      -0.00000092       0.00000165
H        4.21659627       0.81422852      16.79599927        0       1.00000000      -0.00000026      -0.00000079      -0.00000148      -0.00000145       0.00000095      -0.00000167
H        2.80615350       1.62013456       7.77136792        0       1.00000000      -0.00000019      -0.00000062       0.00000164       0.00000106      -0.00000207      -0.00000233
H        2.80615528       4.85901690      19.01468869        0       1.00000000      -0.00000001      -0.00000066      -0.00000084      -0.00000013      -0.00000016      -0.00000197
H        1.40307721       4.05033691       7.77136717        0       1.00000000       0.00000056       0.00000026      -0.00000056      -0.00000235       0.00000076      -0.00000174
21
Lattice="5.612310241546866 0.0 0.0 0.0 4.860403243099165 0.0 0.0 0.0 24.582432123328676" Properties=species:S:1:pos:R:3:tags:I:1:masses:R:1:momenta:R:3:forces:R:3 KEmax=27.14459056223422 iter=239999 volume=670.5618179858607 ns_energy=-14.089240458796164 last_walked_iter_clone=239777 energy=-14.089240458803411 stress="0.021481125199199515 -6.304178327342249e-09 -4.048322697851969e-09 -6.304178327342249e-09 0.021540856768540166 -3.3460089643508112e-09 -4.048322697851969e-09 -3.3460089643508112e-09 0.010717258611322833" pbc="T T F"
H        1.40307756       0.81006721      10.00000000        3       1.00000000       0.00000000       0.00000000       0.00000000       0.00000000       0.00000000       0.00000000
H        4.20923268       0.81006721      10.00000000        3       1.00000000       0.00000000       0.00000000       0.00000000       0.00000000       0.00000000       0.00000000
H        0.00000000       3.24026883      10.00000000        3       1.00000000       0.00000000       0.00000000       0.00000000       0.00000000       0.00000000       0.00000000
H        2.80615512       3.24026883      10.00000000        3       1.00000000       0.00000000       0.00000000       0.00000000       0.00000000       0.00000000       0.00000000
H        0.00000000       1.62013441      12.29121606        2       1.00000000       0.00000000       0.00000000       0.00000000       0.00000000       0.00000000       0.00000000
H        2.80615512       1.62013441      12.29121606        2       1.00000000       0.00000000       0.00000000       0.00000000       0.00000000       0.00000000       0.00000000
H        1.40307756       4.05033604      12.29121606        2       1.00000000       0.00000000       0.00000000       0.00000000       0.00000000       0.00000000       0.00000000
H        4.20923268       4.05033604      12.29121606        2       1.00000000       0.00000000       0.00000000       0.00000000       0.00000000       0.00000000       0.00000000
H        0.00000000       0.00000000      14.58243212        1       1.00000000       0.00000000       0.00000000       0.00000000       0.00000000       0.00000000       0.00000000
H        2.80615512       0.00000000      14.58243212        1       1.00000000       0.00000000       0.00000000       0.00000000       0.00000000       0.00000000       0.00000000
H        1.40307756       2.43020162      14.58243212        1       1.00000000       0.00000000       0.00000000       0.00000000       0.00000000       0.00000000       0.00000000
H        4.20923268       2.43020162      14.58243212        1       1.00000000       0.00000000       0.00000000       0.00000000       0.00000000       0.00000000       0.00000000
H        2.80615582       3.22367418      16.80071592        0       1.00000000      -0.00000055       0.00000005      -0.00000061      -0.00000035       0.00000103      -0.00000225
H        1.39571406       0.81422860      16.79599991        0       1.00000000      -0.00000125       0.00000017      -0.00000127       0.00000249      -0.00000460      -0.00000081
H        4.20923247       4.05033598       7.77136785        0       1.00000000       0.00000046      -0.00000068      -0.00000004       0.00000248       0.00000164      -0.00000009
H        0.00000105       3.24942538      16.83184666        0       1.00000000       0.00000040      -0.00000043      -0.00000113       0.00000077       0.00000336       0.00000073
H        0.00000020       1.62013450       7.77136643        0       1.00000000       0.00000094       0.00000099       0.00000182      -0.00000055      -0.00000092       0.00000165
H        4.21659651       0.81422809      16.79600015        0       1.00000000      -0.00000085      -0.00000033      -0.00000021      -0.00000145       0.00000095      -0.00000167
H        2.80615568       1.62013379       7.77136626        0       1.00000000      -0.00000168      -0.00000043       0.00000099       0.00000106      -0.00000207      -0.00000233
H        2.80615623       4.85901449      19.01468848        0       1.00000000       0.00000060       0.00000056      -0.00000030      -0.00000013      -0.00000016      -0.00000197
H        1.40307772       4.05033545       7.77136661        0       1.00000000      -0.00000095      -0.00000202       0.00000048      -0.00000235       0.00000076      -0.00000174
21
Lattice="5.612310241546866 0.0 0.0 0.0 4.860403243099165 0.0 0.0 0.0 24.582432123328676" Properties=species:S:1:pos:R:3:tags:I:1:masses:R:1:momenta:R:3:forces:R:3 KEmax=27.14459056223422 iter=239999 volume=670.5618179858607 ns_energy=-14.089240458796889 last_walked_iter_clone=239740 energy=-14.089240458803411 stress="0.021481125199199515 -6.304178327342249e-09 -4.048322697851969e-09 -6.304178327342249e-09 0.021540856768540166 -3.3460089643508112e-09 -4.048322697851969e-09 -3.3460089643508112e-09 0.010717258611322833" pbc="T T F"
H        1.40307756       0.81006721      10.00000000        3       1.00000000       0.00000000       0.00000000       0.00000000       0.00000000       0.00000000       0.00000000
H        4.20923268       0.81006721      10.00000000        3       1.00000000       0.00000000       0.00000000       0.00000000       0.00000000       0.00000000       0.00000000
H        0.00000000       3.24026883      10.00000000        3       1.00000000       0.00000000       0.00000000       0.00000000       0.00000000       0.00000000       0.00000000
H        2.80615512       3.24026883      10.00000000        3       1.00000000       0.00000000       0.00000000       0.00000000       0.00000000       0.00000000       0.00000000
H        0.00000000       1.62013441      12.29121606        2       1.00000000       0.00000000       0.00000000       0.00000000       0.00000000       0.00000000       0.00000000
H        2.80615512       1.62013441      12.29121606        2       1.00000000       0.00000000       0.00000000       0.00000000       0.00000000       0.00000000       0.00000000
H        1.40307756       4.05033604      12.29121606        2       1.00000000       0.00000000       0.00000000       0.00000000       0.00000000       0.00000000       0.00000000
H        4.20923268       4.05033604      12.29121606        2       1.00000000       0.00000000       0.00000000       0.00000000       0.00000000       0.00000000       0.00000000
H        0.00000000       0.00000000      14.58243212        1       1.00000000       0.00000000       0.00000000       0.00000000       0.00000000       0.00000000       0.00000000
H        2.80615512       0.00000000      14.58243212        1       1.00000000       0.00000000       0.00000000       0.00000000       0.00000000       0.00000000       0.00000000
H        1.40307756       2.43020162      14.58243212        1       1.00000000       0.00000000       0.00000000       0.00000000       0.00000000       0.00000000       0.00000000
H        4.20923268       2.43020162      14.58243212        1       1.00000000       0.00000000       0.00000000       0.00000000       0.00000000       0.00000000       0.00000000
H        2.80615324       3.22367329      16.80071556        0       1.00000000       0.00000004       0.00000105      -0.00000131      -0.00000035       0.00000103      -0.00000225
H        1.39571323       0.81422830      16.79599998        0       1.00000000      -0.00000122       0.00000063       0.00000116       0.00000249      -0.00000460      -0.00000081
H        4.20923269       4.05033545       7.77136699        0       1.00000000       0.00000103      -0.00000041      -0.00000134       0.00000248       0.00000164      -0.00000009
H       -0.00000114       3.24942316      16.83184669        0       1.00000000      -0.00000109      -0.00000117       0.00000063       0.00000077       0.00000336       0.00000073
H        5.61231000       1.62013423       7.77136659        0       1.00000000       0.00000111       0.00000004       0.00000032      -0.00000055      -0.00000092       0.00000165
H        4.21659513       0.81422782      16.79599994        0       1.00000000      -0.00000015       0.00000003       0.00000072      -0.00000145       0.00000095      -0.00000167