21
Lattice="5.612310241546866 0.0 0.0 0.0 4.860403243099165 0.0 0.0 0.0 24.582432123328676" Properties=species:S:1:pos:R:3:tags:I:1:masses:R:1:momenta:R:3:forces:R:3 KEmax=27.14459056223422 iter=186075 volume=670.5618179858607 ns_energy=-14.089240457974725 last_walked_iter_clone=186051 energy=-14.089240458464301 stress="0.021481074956822107 -1.2375203109987913e-08 1.0396307563664591e-07 -1.2375203109987913e-08 0.021540855738125607 1.0737656594639851e-07 1.0396307563664591e-07 1.0737656594639851e-07 0.01071712442124477" pbc="T T F"
H        1.40307756       0.81006721      10.00000000        3       1.00000000       0.00000000       0.00000000       0.00000000       0.00000000       0.00000000       0.00000000
H        4.20923268       0.81006721      10.00000000        3       1.00000000       0.00000000       0.00000000       0.00000000       0.00000000       0.00000000       0.00000000
H        0.00000000       3.24026883      10.00000000        3       1.00000000       0.00000000       0.00000000       0.00000000       0.00000000       0.00000000       0.00000000
H        2.80615512       3.24026883      10.00000000        3       1.00000000       0.00000000       0.00000000       0.00000000       0.00000000       0.00000000       0.00000000
H        0.00000000       1.62013441      12.29121606        2       1.00000000       0.00000000       0.00000000       0.00000000       0.00000000       0.00000000       0.00000000
H        2.80615512       1.62013441      12.29121606        2       1.00000000       0.00000000       0.00000000       0.00000000       0.00000000       0.00000000       0.00000000
H        1.40307756       4.05033604      12.29121606        2       1.00000000       0.00000000       0.00000000       0.00000000       0.00000000       0.00000000       0.00000000
H        4.20923268       4.05033604      12.29121606        2       1.00000000       0.00000000       0.00000000       0.00000000       0.00000000       0.00000000       0.00000000
H        0.00000000       0.00000000      14.58243212        1       1.00000000       0.00000000       0.00000000       0.00000000       0.00000000       0.00000000       0.00000000
H        2.80615512       0.00000000      14.58243212        1       1.00000000       0.00000000       0.00000000       0.00000000       0.00000000       0.00000000       0.00000000
H        1.40307756       2.43020162      14.58243212        1       1.00000000       0.00000000       0.00000000       0.00000000       0.00000000       0.00000000       0.00000000
H        4.20923268       2.43020162      14.58243212        1       1.00000000       0.00000000       0.00000000       0.00000000       0.00000000       0.00000000       0.00000000
H        2.80615276       3.22367002      16.80070918        0       1.00000000      -0.00000244       0.00000260      -0.00000482       0.00000317      -0.00000138       0.00001773
H        1.39571907       0.81422512      16.79600463        0       1.00000000      -0.00000715      -0.00000952       0.00000148      -0.00000130       0.00000015       0.00000145
H        4.20923588       4.05033794       7.77136521        0       1.00000000       0.00000643       0.00001085       0.00000476       0.00000772       0.00000556       0.00000856
H        0.00000048       3.24942520      16.83184785        0       1.00000000       0.00000230      -0.00000287       0.00000726      -0.00000019      -0.00002073       0.00000657
H       -0.00000290       1.62013345       7.77136347        0       1.00000000      -0.00000379       0.00000615       0.00000274       0.00000887       0.00000613       0.00000343
H        4.21660239       0.81422597      16.79599837        0       1.00000000      -0.00000168      -0.00000191      -0.00000733      -0.00000873       0.00002333       0.00001239
H        2.80615466       1.62013508       7.77136497        0       1.00000000       0.00000013       0.00000634       0.00001199      -0.00000671       0.00001253      -0.00000130
H        2.80617856       4.85899045      19.01468563        0       1.00000000       0.00000984      -0.00000815       0.00000578       0.00000154      -0.00000449      -0.00000992
H        1.40307912       4.05033722       7.77137056        0       1.00000000      -0.00000493       0.00000442       0.00000349       0.00000043      -0.00001798      -0.00000648
21
Lattice="5.612310241546866 0.0 0.0 0.0 4.860403243099165 0.0 0.0 0.0 24.582432123328676" Properties=species:S:1:pos:R:3:tags:I:1:masses:R:1:momenta:R:3:forces:R:3 KEmax=27.14459056223422 iter=186075 volume=670.5618179858607 ns_energy=-14.089240457958896 last_walked_iter_clone=185941 energy=-14.089240458464301 stress="0.021481074956822107 -1.2375203109987913e-08 1.0396307563664591e-07 -1.2375203109987913e-08 0.021540855738125607 1.0737656594639851e-07 1.0396307563664591e-07 1.0737656594639851e-07 0.01071712442124477" pbc="T T F"
H        1.40307756       0.81006721      10.00000000        3       1.00000000       0.00000000       0.00000000       0.00000000       0.00000000       0.00000000       0.00000000
H        4.20923268       0.81006721      10.00000000        3       1.00000000       0.00000000       0.00000000       0.00000000       0.00000000       0.00000000       0.00000000
H        0.00000000       3.24026883      10.00000000        3       1.00000000       0.00000000       0.00000000       0.00000000       0.00000000       0.00000000       0.00000000
H        2.80615512       3.24026883      10.00000000        3       1.00000000       0.00000000       0.00000000       0.00000000       0.00000000       0.00000000       0.00000000
H        0.00000000       1.62013441      12.29121606        2       1.00000000       0.00000000       0.00000000       0.00000000       0.00000000       0.00000000       0.00000000
H        2.80615512       1.62013441      12.29121606        2       1.00000000       0.00000000       0.00000000       0.00000000       0.00000000       0.00000000       0.00000000
H        1.40307756       4.05033604      12.29121606        2       1.00000000       0.00000000       0.00000000       0.00000000       0.00000000       0.00000000       0.00000000
H        4.20923268       4.05033604      12.29121606        2       1.00000000       0.00000000       0.00000000       0.00000000       0.00000000       0.00000000       0.00000000
H        0.00000000       0.00000000      14.58243212        1       1.00000000       0.00000000       0.00000000       0.00000000       0.00000000       0.00000000       0.00000000
H        2.80615512       0.00000000      14.58243212        1       1.00000000       0.00000000       0.00000000       0.00000000       0.00000000       0.00000000       0.00000000
H        1.40307756       2.43020162      14.58243212        1       1.00000000       0.00000000       0.00000000       0.00000000       0.00000000       0.00000000       0.00000000
H        4.20923268       2.43020162      14.58243212        1       1.00000000       0.00000000       0.00000000       0.00000000       0.00000000       0.00000000       0.00000000
H        2.80615736       3.22368155      16.80072055        0       1.00000000       0.00000099      -0.00000208      -0.00000209       0.00000317      -0.00000138       0.00001773
H        1.39571172       0.81423655      16.79599694        0       1.00000000      -0.00001045       0.00000495       0.00001016      -0.00000130       0.00000015       0.00000145
H        4.20922702       4.05034016       7.77137108        0       1.00000000      -0.00000163       0.00000241       0.00000421       0.00000772       0.00000556       0.00000856
H        5.61231376       3.24943182      16.83184783        0       1.00000000       0.00000120      -0.00000077      -0.00000090      -0.00000019      -0.00002073       0.00000657
H        5.61230470       1.62013695       7.77136696        0       1.00000000      -0.00000243       0.00000666       0.00000836       0.00000887       0.00000613       0.00000343
H        4.21659778       0.81423288      16.79599679        0       1.00000000      -0.00000084      -0.00000426       0.00000384      -0.00000873       0.00002333       0.00001239
H        2.80614260       1.62013670       7.77136795        0       1.00000000       0.00000966      -0.00000078       0.00000521      -0.00000671       0.00001253      -0.00000130
H        2.80616878       4.85904266      19.01468225        0       1.00000000       0.00000018       0.00000263      -0.00000232       0.00000154      -0.00000449      -0.00000992
H        1.40307593       4.05033607       7.77136752        0       1.00000000       0.00000177      -0.00001035      -0.00000529       0.00000043      -0.00001798      -0.00000648
21
Lattice="5.612310241546866 0.0 0.0 0.0 4.860403243099165 0.0 0.0 0.0 24.582432123328676" Properties=species:S:1:pos:R:3:tags:I:1:masses:R:1:momenta:R:3:forces:R:3 KEmax=27.14459056223422 iter=186075 volume=670.5618179858607 ns_energy=-14.08924045796904 last_walked_iter_clone=185919 energy=-14.089240458464301 stress="0.021481074956822107 -1.2375203109987913e-08 1.0396307563664591e-07 -1.2375203109987913e-08 0.021540855738125607 1.0737656594639851e-07 1.0396307563664591e-07 1.0737656594639851e-07 0.01071712442124477" pbc="T T F"
H        1.40307756       0.81006721      10.00000000        3       1.00000000       0.00000000       0.00000000       0.00000000       0.00000000       0.00000000       0.00000000
H        4.20923268       0.81006721      10.00000000        3       1.00000000       0.00000000       0.00000000       0.00000000       0.00000000       0.00000000       0.00000000
H        0.00000000       3.24026883      10.00000000        3       1.00000000       0.00000000       0.00000000       0.00000000       0.00000000       0.00000000       0.00000000
H        2.80615512       3.24026883      10.00000000        3       1.00000000       0.00000000       0.00000000       0.00000000       0.00000000       0.00000000       0.00000000
H        0.00000000       1.62013441      12.29121606        2       1.00000000       0.00000000       0.00000000       0.00000000       0.00000000       0.00000000       0.00000000
H        2.80615512       1.62013441      12.29121606        2       1.00000000       0.00000000       0.00000000       0.00000000       0.00000000       0.00000000       0.00000000
H        1.40307756       4.05033604      12.29121606        2       1.00000000       0.00000000       0.00000000       0.00000000       0.00000000       0.00000000       0.00000000
H        4.20923268       4.05033604      12.29121606        2       1.00000000       0.00000000       0.00000000       0.00000000       0.00000000       0.00000000       0.00000000
H        0.00000000       0.00000000      14.58243212        1       1.00000000       0.00000000       0.00000000       0.00000000       0.00000000       0.00000000       0.00000000
H        2.80615512       0.00000000      14.58243212        1       1.00000000       0.00000000       0.00000000       0.00000000       0.00000000       0.00000000       0.00000000
H        1.40307756       2.43020162      14.58243212        1       1.00000000       0.00000000       0.00000000       0.00000000       0.00000000       0.00000000       0.00000000
H        4.20923268       2.43020162      14.58243212        1       1.00000000       0.00000000       0.00000000       0.00000000       0.00000000       0.00000000       0.00000000
H        2.80614890       3.22367191      16.80071396        0       1.00000000      -0.00000722       0.00000544       0.00000795       0.00000317      -0.00000138       0.00001773
H        1.39571490       0.81423175      16.79599658        0       1.00000000      -0.00000664      -0.00000694      -0.00000133      -0.00000130       0.00000015       0.00000145
H        4.20923669       4.05033478       7.77136037        0       1.00000000      -0.00000473      -0.00000281      -0.00000337       0.00000772       0.00000556       0.00000856
H       -0.00000335       3.24942796      16.83184687        0       1.00000000       0.00001137      -0.00001196       0.00000037      -0.00000019      -0.00002073       0.00000657
H        0.00000293       1.62013890       7.77136776        0       1.00000000       0.00000127       0.00000336       0.00000171       0.00000887       0.00000613       0.00000343
H        4.21659699       0.81422783      16.79599811        0       1.00000000       0.00000152      -0.00000023       0.00000265      -0.00000873       0.00002333       0.00001239
H        2.80615626       1.62013238       7.77136471        0       1.00000000      -0.00000375       0.00000782      -0.00000422      -0.00000671       0.00001253      -0.00000130
H        2.80616121       4.85900899      19.01468657        0       1.00000000      -0.00000771      -0.00000222       0.00000105       0.00000154      -0.00000449      -0.00000992
H        1.40307986       4.05034557       7.77136354        0       1.00000000      -0.00000563       0.00001088      -0.00000004       0.00000043      -0.00001798      -0.00000648
21
Lattice="5.612310241546866 0.0 0.0 0.0 4.860403243099165 0.0 0.0 0.0 24.582432123328676" Properties=species:S:1:pos:R:3:tags:I:1:masses:R:1:momenta:R:3:forces:R:3 KEmax=27.14459056223422 iter=186075 volume=670.5618179858607 ns_energy=-14.089240457970725 last_walked_iter_clone=185948 energy=-14.089240458464301 stress="0.021481074956822107 -1.2375203109987913e-08 1.0396307563664591e-07 -1.2375203109987913e-08 0.021540855738125607 1.0737656594639851e-07 1.0396307563664591e-07 1.0737656594639851e-07 0.01071712442124477" pbc="T T F"
H        1.40307756       0.81006721      10.00000000        3       1.00000000       0.00000000       0.00000000       0.00000000       0.00000000       0.00000000       0.00000000
H        4.20923268       0.81006721      10.00000000        3       1.00000000       0.00000000       0.00000000       0.00000000       0.00000000       0.00000000       0.00000000
H        0.00000000       3.24026883      10.00000000        3       1.00000000       0.00000000       0.00000000       0.00000000       0.00000000       0.00000000       0.00000000
H        2.80615512       3.24026883      10.00000000        3       1.00000000       0.00000000       0.00000000       0.00000000       0.00000000       0.00000000       0.00000000
H        0.00000000       1.62013441      12.29121606        2       1.00000000       0.00000000       0.00000000       0.00000000       0.00000000       0.00000000       0.00000000
H        2.80615512       1.62013441      12.29121606        2       1.00000000       0.00000000       0.00000000       0.00000000       0.00000000       0.00000000       0.00000000
H        1.40307756       4.05033604      12.29121606        2       1.00000000       0.00000000       0.00000000       0.00000000       0.00000000       0.00000000       0.00000000
H        4.20923268       4.05033604      12.29121606        2       1.00000000       0.00000000       0.00000000       0.00000000       0.00000000       0.00000000       0.00000000
H        0.00000000       0.00000000      14.58243212        1       1.00000000       0.00000000       0.00000000       0.00000000       0.00000000       0.00000000       0.00000000
H        2.80615512       0.00000000      14.58243212        1       1.00000000       0.00000000       0.00000000       0.00000000       0.00000000       0.00000000       0.00000000
H        1.40307756       2.43020162      14.58243212        1       1.00000000       0.00000000       0.00000000       0.00000000       0.00000000       0.00000000       0.00000000
H        4.20923268       2.43020162      14.58243212        1       1.00000000       0.00000000       0.00000000       0.00000000       0.00000000       0.00000000       0.00000000
H        2.80615348       3.22368881      16.80071731        0       1.00000000       0.00000732      -0.00000433      -0.00000132       0.00000317      -0.00000138       0.00001773
H        1.39571385       0.81423565      16.79600142        0       1.00000000      -0.00000299       0.00000382       0.00000436      -0.00000130       0.00000015       0.00000145
H        4.20923145       4.05034349       7.77136987        0       1.00000000      -0.00000846      -0.00000023      -0.00000372       0.00000772       0.00000556       0.00000856
H        5.61230916       3.24943150      16.83184396        0       1.00000000       0.00000101      -0.00000498       0.00000800      -0.00000019      -0.00002073       0.00000657
H        5.61231148       1.62013854       7.77135743        0       1.00000000       0.00000785      -0.00000520       0.00000758       0.00000887       0.00000613       0.00000343
H        4.21659447       0.81424109      16.79599759        0       1.00000000       0.00000714       0.00000521      -0.00000072      -0.00000873       0.00002333       0.00001239
H        2.80615708       1.62014126       7.77137143        0       1.00000000       0.00000246       0.00000035      -0.00000816      -0.00000671       0.00001253      -0.00000130
H        2.80615731       4.85903422      19.01469085        0       1.00000000       0.00000105       0.00000652       0.00000153       0.00000154      -0.00000449      -0.00000992
H        1.40307368       4.05034502       7.77136785        0       1.00000000      -0.00000422       0.00000012       0.00000477       0.00000043      -0.00001798      -0.00000648
21
Lattice="5.612310241546866 0.0 0.0 0.0 4.860403243099165 0.0 0.0 0.0 24.582432123328676" Properties=species:S:1:pos:R:3:tags:I:1:masses:R:1:momenta:R:3:forces:R:3 KEmax=27.14459056223422 iter=186075 volume=670.5618179858607 ns_energy=-14.08924045795645 last_walked_iter_clone=185942 energy=-14.089240458464301 stress="0.021481074956822107 -1.2375203109987913e-08 1.0396307563664591e-07 -1.2375203109987913e-08 0.021540855738125607 1.0737656594639851e-07 1.0396307563664591e-07 1.0737656594639851e-07 0.01071712442124477" pbc="T T F"
H        1.40307756       0.81006721      10.00000000        3       1.00000000       0.00000000       0.00000000       0.00000000       0.00000000       0.00000000       0.00000000
H        4.20923268       0.81006721      10.00000000        3       1.00000000       0.00000000       0.00000000       0.00000000       0.00000000       0.00000000       0.00000000
H        0.00000000       3.24026883      10.00000000        3       1.00000000       0.00000000       0.00000000       0.00000000       0.00000000       0.00000000       0.00000000
H        2.80615512       3.24026883      10.00000000        3       1.00000000       0.00000000       0.00000000       0.00000000       0.00000000       0.00000000       0.00000000
H        0.00000000       1.62013441      12.29121606        2       1.00000000       0.00000000       0.00000000       0.00000000       0.00000000       0.00000000       0.00000000
H        2.80615512       1.62013441      12.29121606        2       1.00000000       0.00000000       0.00000000       0.00000000       0.00000000       0.00000000       0.00000000
H        1.40307756       4.05033604      12.29121606        2       1.00000000       0.00000000       0.00000000       0.00000000       0.00000000       0.00000000       0.00000000
H        4.20923268       4.05033604      12.29121606        2       1.00000000       0.00000000       0.00000000       0.00000000       0.00000000       0.00000000       0.00000000
H        0.00000000       0.00000000      14.58243212        1       1.00000000       0.00000000       0.00000000       0.00000000       0.00000000       0.00000000       0.00000000
H        2.80615512       0.00000000      14.58243212        1       1.00000000       0.00000000       0.00000000       0.00000000       0.00000000       0.00000000       0.00000000
H        1.40307756       2.43020162      14.58243212        1       1.00000000       0.00000000       0.00000000       0.00000000       0.00000000       0.00000000       0.00000000
H        4.20923268       2.43020162      14.58243212        1       1.00000000       0.00000000       0.00000000       0.00000000       0.00000000       0.00000000       0.00000000
H        2.80614620       3.22367696      16.80071438        0       1.00000000      -0.00000542      -0.00000718       0.00000494       0.00000317      -0.00000138       0.00001773
H        1.39571597       0.81423092      16.79599938        0       1.00000000      -0.00000285       0.00000677       0.00000109      -0.00000130       0.00000015       0.00000145
H        4.20924015       4.05033652       7.77136452        0       1.00000000      -0.00001388      -0.00000219       0.00000057       0.00000772       0.00000556       0.00000856
H       -0.00000538       3.24943133      16.83184856        0       1.00000000      -0.00000176       0.00000282      -0.00000465      -0.00000019      -0.00002073       0.00000657
H        0.00000220       1.62013285       7.77136836        0       1.00000000      -0.00000413      -0.00000223       0.00001128       0.00000887       0.00000613       0.00000343
H        4.21659682       0.81423149      16.79599778        0       1.00000000       0.00000677       0.00000349       0.00000803      -0.00000873       0.00002333       0.00001239
H        2.80616165       1.62013648       7.77136766        0       1.00000000      -0.00000572      -0.00000113       0.00000476      -0.00000671       0.00001253      -0.00000130
H        2.80614159       4.85900507      19.01468924        0       1.00000000      -0.00000685      -0.00000746      -0.00000553       0.00000154      -0.00000449      -0.00000992
H        1.40308107       4.05033915       7.77136574        0       1.00000000       0.00000457      -0.00000640      -0.00000348       0.00000043      -0.00001798      -0.00000648
21
Lattice="5.612310241546866 0.0 0.0 0.0 4.860403243099165 0.0 0.0 0.0 24.582432123328676" Properties=species:S:1:pos:R:3:tags:I:1:masses:R:1:momenta:R:3:forces:R:3 KEmax=27.14459056223422 iter=186075 volume=670.5618179858607 ns_energy=-14.089240457973338 last_walked_iter_clone=185744 energy=-14.089240458464301 stress="0.021481074956822107 -1.2375203109987913e-08 1.0396307563664591e-07 -1.2375203109987913e-08 0.021540855738125607 1.0737656594639851e-07 1.0396307563664591e-07 1.0737656594639851e-07 0.01071712442124477" pbc="T T F"
H        1.40307756       0.81006721      10.00000000        3       1.00000000       0.00000000       0.00000000       0.00000000       0.00000000       0.00000000       0.00000000
H        4.20923268       0.81006721      10.00000000        3       1.00000000       0.00000000       0.00000000       0.00000000       0.00000000       0.00000000       0.00000000
H        0.00000000       3.24026883      10.00000000        3       1.00000000       0.00000000       0.00000000       0.00000000       0.00000000       0.00000000       0.00000000
H        2.80615512       3.24026883      10.00000000        3       1.00000000       0.00000000       0.00000000       0.00000000       0.00000000       0.00000000       0.00000000
H        0.00000000       1.62013441      12.29121606        2       1.00000000       0.00000000       0.00000000       0.00000000       0.00000000       0.00000000       0.00000000
H        2.80615512       1.62013441      12.29121606        2       1.00000000       0.00000000       0.00000000       0.00000000       0.00000000       0.00000000       0.00000000
H        1.40307756       4.05033604      12.29121606        2       1.00000000       0.00000000       0.00000000       0.00000000       0.00000000       0.00000000       0.00000000
H        4.20923268       4.05033604      12.29121606        2       1.00000000       0.00000000       0.00000000       0.00000000       0.00000000       0.00000000       0.00000000
H        0.00000000       0.00000000      14.58243212        1       1.00000000       0.00000000       0.00000000       0.00000000       0.00000000       0.00000000       0.00000000
H        2.80615512       0.00000000      14.58243212        1       1.00000000       0.00000000       0.00000000       0.00000000       0.00000000       0.00000000       0.00000000
H        1.40307756       2.43020162      14.58243212        1       1.00000000       0.00000000       0.00000000       0.00000000       0.00000000       0.00000000       0.00000000
H        4.20923268       2.43020162      14.58243212        1       1.00000000       0.00000000       0.00000000       0.00000000       0.00000000       0.00000000       0.00000000
H        2.80615145       3.22367464      16.80071302        0       1.00000000      -0.00000455      -0.00000246       0.00001199       0.00000317      -0.00000138       0.00001773
H        1.39571260       0.81423147      16.79600570        0       1.00000000       0.00000002      -0.00001364       0.00000312      -0.00000130       0.00000015       0.00000145
H        4.20923292       4.05033523       7.77137006        0       1.00000000      -0.00000241      -0.00000390      -0.00000495       0.00000772       0.00000556       0.00000856
H        5.61230753       3.24942535      16.83184168        0       1.00000000       0.00000512       0.00000405       0.00000035      -0.00000019      -0.00002073       0.00000657
H       -0.00000284       1.62014128       7.77136911        0       1.00000000       0.00000444       0.00000534      -0.00000594       0.00000887       0.00000613       0.00000343
H        4.21659145       0.81423160      16.79599717        0       1.00000000       0.00000015      -0.00000479       0.00000283      -0.00000873       0.00002333       0.00001239
H        2.80615419       1.62013915       7.77136608        0       1.00000000      -0.00000942      -0.00000782       0.00000132      -0.00000671       0.00001253      -0.00000130
H        2.80615739       4.85901257      19.01468806        0       1.00000000       0.00000090      -0.00000692      -0.00000257       0.00000154      -0.00000449      -0.00000992
H        1.40307023       4.05033893       7.77137418        0       1.00000000      -0.00000837      -0.00000169      -0.00000337       0.00000043      -0.00001798      -0.00000648
21
Lattice="5.612310241546866 0.0 0.0 0.0 4.860403243099165 0.0 0.0 0.0 24.582432123328676" Properties=species:S:1:pos:R:3:tags:I:1:masses:R:1:momenta:R:3:forces:R:3 KEmax=27.14459056223422 iter=186075 volume=670.5618179858607 ns_energy=-14.089240457982468 last_walked_iter_clone=186005 energy=-14.089240458464301 stress="0.021481074956822107 -1.2375203109987913e-08 1.0396307563664591e-07 -1.2375203109987913e-08 0.021540855738125607 1.0737656594639851e-07 1.0396307563664591e-07 1.0737656594639851e-07 0.01071712442124477" pbc="T T F"
H        1.40307756       0.81006721      10.00000000        3       1.00000000       0.00000000       0.00000000       0.00000000       0.00000000       0.00000000       0.00000000
H        4.20923268       0.81006721      10.00000000        3       1.00000000       0.00000000       0.00000000       0.00000000       0.00000000       0.00000000       0.00000000
H        0.00000000       3.24026883      10.00000000        3       1.00000000       0.00000000       0.00000000       0.00000000       0.00000000       0.00000000       0.00000000
H        2.80615512       3.24026883      10.00000000        3       1.00000000       0.00000000       0.00000000       0.00000000       0.00000000       0.00000000       0.00000000
H        0.00000000       1.62013441      12.29121606        2       1.00000000       0.00000000       0.00000000       0.00000000       0.00000000       0.00000000       0.00000000
H        2.80615512       1.62013441      12.29121606        2       1.00000000       0.00000000       0.00000000       0.00000000       0.00000000       0.00000000       0.00000000
H        1.40307756       4.05033604      12.29121606        2       1.00000000       0.00000000       0.00000000       0.00000000       0.00000000       0.00000000       0.00000000
H        4.20923268       4.05033604      12.29121606        2       1.00000000       0.00000000       0.00000000       0.00000000       0.00000000       0.00000000       0.00000000
H        0.00000000       0.00000000      14.58243212        1       1.00000000       0.00000000       0.00000000       0.00000000       0.00000000       0.00000000       0.00000000
H        2.80615512       0.00000000      14.58243212        1       1.00000000       0.00000000       0.00000000       0.00000000       0.00000000       0.00000000       0.00000000
H        1.40307756       2.43020162      14.58243212        1       1.00000000       0.00000000       0.00000000       0.00000000       0.00000000       0.00000000       0.00000000
H        4.20923268       2.43020162      14.58243212        1       1.00000000       0.00000000       0.00000000       0.00000000       0.00000000       0.00000000       0.00000000
H        2.80616333       3.22367193      16.80071733        0       1.00000000      -0.00000345       0.00001360       0.00000159       0.00000317      -0.00000138       0.00001773
H        1.39572320       0.81422640      16.79599975        0       1.00000000      -0.00000273      -0.00000291      -0.00000055      -0.00000130       0.00000015       0.00000145
H        4.20923085       4.05034554       7.77136938        0       1.00000000       0.00000578       0.00000024       0.00000407       0.00000772       0.00000556       0.00000856
H        0.00000642       3.24942554      16.83184571        0       1.00000000       0.00000038       0.00000016      -0.00000378      -0.00000019      -0.00002073       0.00000657
H        0.00000013       1.62014486       7.77137401        0       1.00000000      -0.00000240       0.00000927      -0.00000429       0.00000887       0.00000613       0.00000343
H        4.21660119       0.81422835      16.79599823        0       1.00000000      -0.00000453      -0.00001595       0.00000095      -0.00000873       0.00002333       0.00001239