20
Lattice="5.612310241546866 0.0 0.0 0.0 4.860403243099165 0.0 0.0 0.0 24.582432123328676" Properties=species:S:1:pos:R:3:tags:I:1:masses:R:1:momenta:R:3:forces:R:3 KEmax=25.851991011651638 iter=145640 volume=670.5618179858607 ns_energy=-13.621460764096119 last_walked_iter_clone=145144 energy=-13.621460791170248 stress="0.025729098464614762 5.565160738086909e-07 -1.1190527606786735e-06 5.565160738086909e-07 0.02572853860614072 -5.62664557289866e-07 -1.1190527606786735e-06 -5.62664557289866e-07 0.013193279333020804" pbc="T T F"
H        1.40307756       0.81006721      10.00000000        3       1.00000000       0.00000000       0.00000000       0.00000000       0.00000000       0.00000000       0.00000000
H        4.20923268       0.81006721      10.00000000        3       1.00000000       0.00000000       0.00000000       0.00000000       0.00000000       0.00000000       0.00000000
H        0.00000000       3.24026883      10.00000000        3       1.00000000       0.00000000       0.00000000       0.00000000       0.00000000       0.00000000       0.00000000
H        2.80615512       3.24026883      10.00000000        3       1.00000000       0.00000000       0.00000000       0.00000000       0.00000000       0.00000000       0.00000000
H        0.00000000       1.62013441      12.29121606        2       1.00000000       0.00000000       0.00000000       0.00000000       0.00000000       0.00000000       0.00000000
H        2.80615512       1.62013441      12.29121606        2       1.00000000       0.00000000       0.00000000       0.00000000       0.00000000       0.00000000       0.00000000
H        1.40307756       4.05033604      12.29121606        2       1.00000000       0.00000000       0.00000000       0.00000000       0.00000000       0.00000000       0.00000000
H        4.20923268       4.05033604      12.29121606        2       1.00000000       0.00000000       0.00000000       0.00000000       0.00000000       0.00000000       0.00000000
H        0.00000000       0.00000000      14.58243212        1       1.00000000       0.00000000       0.00000000       0.00000000       0.00000000       0.00000000       0.00000000
H        2.80615512       0.00000000      14.58243212        1       1.00000000       0.00000000       0.00000000       0.00000000       0.00000000       0.00000000       0.00000000
H        1.40307756       2.43020162      14.58243212        1       1.00000000       0.00000000       0.00000000       0.00000000       0.00000000       0.00000000       0.00000000
H        4.20923268       2.43020162      14.58243212        1       1.00000000       0.00000000       0.00000000       0.00000000       0.00000000       0.00000000       0.00000000
H        1.40304275       4.05035013      16.81103041        0       1.00000000       0.00006662      -0.00006420       0.00000664       0.00008858      -0.00005970       0.00007191
H        0.00000079       1.62019041       7.77137093        0       1.00000000      -0.00002669       0.00008860      -0.00003513       0.00007332       0.00007198       0.00001620
H        4.20917292       4.05030529      16.81106063        0       1.00000000      -0.00008536      -0.00000171      -0.00009572       0.00002875      -0.00001333       0.00006352
H        2.80615867       1.62018381       7.77133672        0       1.00000000      -0.00005461       0.00009388      -0.00001529      -0.00014020      -0.00016553      -0.00006214
H        5.61226847       1.62016361      16.81107076        0       1.00000000      -0.00001405      -0.00001964       0.00000643      -0.00000282       0.00015917      -0.00001735
H        1.40309143       4.05035869       7.77138363        0       1.00000000      -0.00006584      -0.00007487      -0.00004231      -0.00005202      -0.00005008       0.00002958
H        2.80612236       1.62013172      16.81100771        0       1.00000000       0.00002476       0.00001132      -0.00001938      -0.00004852      -0.00010947       0.00000818
H        4.20924380       4.05035918       7.77138288        0       1.00000000      -0.00002182      -0.00004181      -0.00000599       0.00006131       0.00005818      -0.00005200
20
Lattice="5.612310241546866 0.0 0.0 0.0 4.860403243099165 0.0 0.0 0.0 24.582432123328676" Properties=species:S:1:pos:R:3:tags:I:1:masses:R:1:momenta:R:3:forces:R:3 KEmax=25.851991011651638 iter=145640 volume=670.5618179858607 ns_energy=-13.621460764590788 last_walked_iter_clone=145347 energy=-13.621460791170248 stress="0.025729098464614762 5.565160738086909e-07 -1.1190527606786735e-06 5.565160738086909e-07 0.02572853860614072 -5.62664557289866e-07 -1.1190527606786735e-06 -5.62664557289866e-07 0.013193279333020804" pbc="T T F"
H        1.40307756       0.81006721      10.00000000        3       1.00000000       0.00000000       0.00000000       0.00000000       0.00000000       0.00000000       0.00000000
H        4.20923268       0.81006721      10.00000000        3       1.00000000       0.00000000       0.00000000       0.00000000       0.00000000       0.00000000       0.00000000
H        0.00000000       3.24026883      10.00000000        3       1.00000000       0.00000000       0.00000000       0.00000000       0.00000000       0.00000000       0.00000000
H        2.80615512       3.24026883      10.00000000        3       1.00000000       0.00000000       0.00000000       0.00000000       0.00000000       0.00000000       0.00000000
H        0.00000000       1.62013441      12.29121606        2       1.00000000       0.00000000       0.00000000       0.00000000       0.00000000       0.00000000       0.00000000
H        2.80615512       1.62013441      12.29121606        2       1.00000000       0.00000000       0.00000000       0.00000000       0.00000000       0.00000000       0.00000000
H        1.40307756       4.05033604      12.29121606        2       1.00000000       0.00000000       0.00000000       0.00000000       0.00000000       0.00000000       0.00000000
H        4.20923268       4.05033604      12.29121606        2       1.00000000       0.00000000       0.00000000       0.00000000       0.00000000       0.00000000       0.00000000
H        0.00000000       0.00000000      14.58243212        1       1.00000000       0.00000000       0.00000000       0.00000000       0.00000000       0.00000000       0.00000000
H        2.80615512       0.00000000      14.58243212        1       1.00000000       0.00000000       0.00000000       0.00000000       0.00000000       0.00000000       0.00000000
H        1.40307756       2.43020162      14.58243212        1       1.00000000       0.00000000       0.00000000       0.00000000       0.00000000       0.00000000       0.00000000
H        4.20923268       2.43020162      14.58243212        1       1.00000000       0.00000000       0.00000000       0.00000000       0.00000000       0.00000000       0.00000000
H        1.40310263       4.05034175      16.81105334        0       1.00000000      -0.00005869       0.00001687      -0.00007091       0.00008858      -0.00005970       0.00007191
H       -0.00001445       1.62009087       7.77138831        0       1.00000000      -0.00001544       0.00005263      -0.00007158       0.00007332       0.00007198       0.00001620
H        4.20924415       4.05031767      16.81105261        0       1.00000000       0.00005789      -0.00003881      -0.00000634       0.00002875      -0.00001333       0.00006352
H        2.80620242       1.62012256       7.77136144        0       1.00000000      -0.00008168       0.00002937      -0.00004957      -0.00014020      -0.00016553      -0.00006214
H       -0.00000118       1.62010913      16.81103649        0       1.00000000      -0.00001369      -0.00000064       0.00002666      -0.00000282       0.00015917      -0.00001735
H        1.40307265       4.05031972       7.77137726        0       1.00000000      -0.00002156      -0.00009534       0.00001086      -0.00005202      -0.00005008       0.00002958
H        2.80614816       1.62014855      16.81110055        0       1.00000000      -0.00001685      -0.00004837      -0.00013425      -0.00004852      -0.00010947       0.00000818
H        4.20921867       4.05034215       7.77139395        0       1.00000000       0.00004626       0.00002989      -0.00003589       0.00006131       0.00005818      -0.00005200
20
Lattice="5.612310241546866 0.0 0.0 0.0 4.860403243099165 0.0 0.0 0.0 24.582432123328676" Properties=species:S:1:pos:R:3:tags:I:1:masses:R:1:momenta:R:3:forces:R:3 KEmax=25.851991011651638 iter=145640 volume=670.5618179858607 ns_energy=-13.621460764160384 last_walked_iter_clone=145279 energy=-13.621460791170248 stress="0.025729098464614762 5.565160738086909e-07 -1.1190527606786735e-06 5.565160738086909e-07 0.02572853860614072 -5.62664557289866e-07 -1.1190527606786735e-06 -5.62664557289866e-07 0.013193279333020804" pbc="T T F"
H        1.40307756       0.81006721      10.00000000        3       1.00000000       0.00000000       0.00000000       0.00000000       0.00000000       0.00000000       0.00000000
H        4.20923268       0.81006721      10.00000000        3       1.00000000       0.00000000       0.00000000       0.00000000       0.00000000       0.00000000       0.00000000
H        0.00000000       3.24026883      10.00000000        3       1.00000000       0.00000000       0.00000000       0.00000000       0.00000000       0.00000000       0.00000000
H        2.80615512       3.24026883      10.00000000        3       1.00000000       0.00000000       0.00000000       0.00000000       0.00000000       0.00000000       0.00000000
H        0.00000000       1.62013441      12.29121606        2       1.00000000       0.00000000       0.00000000       0.00000000       0.00000000       0.00000000       0.00000000
H        2.80615512       1.62013441      12.29121606        2       1.00000000       0.00000000       0.00000000       0.00000000       0.00000000       0.00000000       0.00000000
H        1.40307756       4.05033604      12.29121606        2       1.00000000       0.00000000       0.00000000       0.00000000       0.00000000       0.00000000       0.00000000
H        4.20923268       4.05033604      12.29121606        2       1.00000000       0.00000000       0.00000000       0.00000000       0.00000000       0.00000000       0.00000000
H        0.00000000       0.00000000      14.58243212        1       1.00000000       0.00000000       0.00000000       0.00000000       0.00000000       0.00000000       0.00000000
H        2.80615512       0.00000000      14.58243212        1       1.00000000       0.00000000       0.00000000       0.00000000       0.00000000       0.00000000       0.00000000
H        1.40307756       2.43020162      14.58243212        1       1.00000000       0.00000000       0.00000000       0.00000000       0.00000000       0.00000000       0.00000000
H        4.20923268       2.43020162      14.58243212        1       1.00000000       0.00000000       0.00000000       0.00000000       0.00000000       0.00000000       0.00000000
H        1.40302691       4.05037361      16.81112458        0       1.00000000      -0.00002704       0.00004574      -0.00009710       0.00008858      -0.00005970       0.00007191
H        5.61228190       1.62008261       7.77137522        0       1.00000000       0.00001803      -0.00004940      -0.00004940       0.00007332       0.00007198       0.00001620
H        4.20921051       4.05036213      16.81105103        0       1.00000000      -0.00001478      -0.00002279      -0.00006143       0.00002875      -0.00001333       0.00006352
H        2.80617170       1.62011978       7.77134249        0       1.00000000       0.00006050      -0.00006978       0.00003861      -0.00014020      -0.00016553      -0.00006214
H        5.61232765       1.62016088      16.81102577        0       1.00000000       0.00000418      -0.00002684      -0.00000619      -0.00000282       0.00015917      -0.00001735
H        1.40306178       4.05030053       7.77133474        0       1.00000000       0.00005236       0.00006378      -0.00002396      -0.00005202      -0.00005008       0.00002958
H        2.80611427       1.62015255      16.81111011        0       1.00000000      -0.00003724      -0.00004497       0.00001374      -0.00004852      -0.00010947       0.00000818
H        4.20918939       4.05029396       7.77137017        0       1.00000000      -0.00004128      -0.00000511      -0.00004185       0.00006131       0.00005818      -0.00005200
20
Lattice="5.612310241546866 0.0 0.0 0.0 4.860403243099165 0.0 0.0 0.0 24.582432123328676" Properties=species:S:1:pos:R:3:tags:I:1:masses:R:1:momenta:R:3:forces:R:3 KEmax=25.851991011651638 iter=145640 volume=670.5618179858607 ns_energy=-13.62146076533938 last_walked_iter_clone=145498 energy=-13.621460791170248 stress="0.025729098464614762 5.565160738086909e-07 -1.1190527606786735e-06 5.565160738086909e-07 0.02572853860614072 -5.62664557289866e-07 -1.1190527606786735e-06 -5.62664557289866e-07 0.013193279333020804" pbc="T T F"
H        1.40307756       0.81006721      10.00000000        3       1.00000000       0.00000000       0.00000000       0.00000000       0.00000000       0.00000000       0.00000000
H        4.20923268       0.81006721      10.00000000        3       1.00000000       0.00000000       0.00000000       0.00000000       0.00000000       0.00000000       0.00000000
H        0.00000000       3.24026883      10.00000000        3       1.00000000       0.00000000       0.00000000       0.00000000       0.00000000       0.00000000       0.00000000
H        2.80615512       3.24026883      10.00000000        3       1.00000000       0.00000000       0.00000000       0.00000000       0.00000000       0.00000000       0.00000000
H        0.00000000       1.62013441      12.29121606        2       1.00000000       0.00000000       0.00000000       0.00000000       0.00000000       0.00000000       0.00000000
H        2.80615512       1.62013441      12.29121606        2       1.00000000       0.00000000       0.00000000       0.00000000       0.00000000       0.00000000       0.00000000
H        1.40307756       4.05033604      12.29121606        2       1.00000000       0.00000000       0.00000000       0.00000000       0.00000000       0.00000000       0.00000000
H        4.20923268       4.05033604      12.29121606        2       1.00000000       0.00000000       0.00000000       0.00000000       0.00000000       0.00000000       0.00000000
H        0.00000000       0.00000000      14.58243212        1       1.00000000       0.00000000       0.00000000       0.00000000       0.00000000       0.00000000       0.00000000
H        2.80615512       0.00000000      14.58243212        1       1.00000000       0.00000000       0.00000000       0.00000000       0.00000000       0.00000000       0.00000000
H        1.40307756       2.43020162      14.58243212        1       1.00000000       0.00000000       0.00000000       0.00000000       0.00000000       0.00000000       0.00000000
H        4.20923268       2.43020162      14.58243212        1       1.00000000       0.00000000       0.00000000       0.00000000       0.00000000       0.00000000       0.00000000
H        1.40301570       4.05037117      16.81105211        0       1.00000000      -0.00003990      -0.00000903      -0.00009580       0.00008858      -0.00005970       0.00007191
H        5.61230839       1.62009970       7.77136783        0       1.00000000       0.00006576      -0.00000534       0.00000487       0.00007332       0.00007198       0.00001620
H        4.20921283       4.05033004      16.81110368        0       1.00000000      -0.00002204       0.00012676      -0.00002174       0.00002875      -0.00001333       0.00006352
H        2.80616479       1.62011336       7.77132785        0       1.00000000       0.00004707      -0.00003758      -0.00003750      -0.00014020      -0.00016553      -0.00006214
H       -0.00004993       1.62010531      16.81104145        0       1.00000000       0.00003325       0.00004486      -0.00004442      -0.00000282       0.00015917      -0.00001735
H        1.40309710       4.05031120       7.77139054        0       1.00000000      -0.00004147       0.00007271      -0.00005558      -0.00005202      -0.00005008       0.00002958
H        2.80610598       1.62010822      16.81102222        0       1.00000000      -0.00002054      -0.00002070       0.00001082      -0.00004852      -0.00010947       0.00000818
H        4.20924824       4.05033918       7.77138458        0       1.00000000      -0.00001380      -0.00000918      -0.00000176       0.00006131       0.00005818      -0.00005200
20
Lattice="5.612310241546866 0.0 0.0 0.0 4.860403243099165 0.0 0.0 0.0 24.582432123328676" Properties=species:S:1:pos:R:3:tags:I:1:masses:R:1:momenta:R:3:forces:R:3 KEmax=25.851991011651638 iter=145640 volume=670.5618179858607 ns_energy=-13.62146076486786 last_walked_iter_clone=145610 energy=-13.621460791170248 stress="0.025729098464614762 5.565160738086909e-07 -1.1190527606786735e-06 5.565160738086909e-07 0.02572853860614072 -5.62664557289866e-07 -1.1190527606786735e-06 -5.62664557289866e-07 0.013193279333020804" pbc="T T F"
H        1.40307756       0.81006721      10.00000000        3       1.00000000       0.00000000       0.00000000       0.00000000       0.00000000       0.00000000       0.00000000
H        4.20923268       0.81006721      10.00000000        3       1.00000000       0.00000000       0.00000000       0.00000000       0.00000000       0.00000000       0.00000000
H        0.00000000       3.24026883      10.00000000        3       1.00000000       0.00000000       0.00000000       0.00000000       0.00000000       0.00000000       0.00000000
H        2.80615512       3.24026883      10.00000000        3       1.00000000       0.00000000       0.00000000       0.00000000       0.00000000       0.00000000       0.00000000
H        0.00000000       1.62013441      12.29121606        2       1.00000000       0.00000000       0.00000000       0.00000000       0.00000000       0.00000000       0.00000000
H        2.80615512       1.62013441      12.29121606        2       1.00000000       0.00000000       0.00000000       0.00000000       0.00000000       0.00000000       0.00000000
H        1.40307756       4.05033604      12.29121606        2       1.00000000       0.00000000       0.00000000       0.00000000       0.00000000       0.00000000       0.00000000
H        4.20923268       4.05033604      12.29121606        2       1.00000000       0.00000000       0.00000000       0.00000000       0.00000000       0.00000000       0.00000000
H        0.00000000       0.00000000      14.58243212        1       1.00000000       0.00000000       0.00000000       0.00000000       0.00000000       0.00000000       0.00000000
H        2.80615512       0.00000000      14.58243212        1       1.00000000       0.00000000       0.00000000       0.00000000       0.00000000       0.00000000       0.00000000
H        1.40307756       2.43020162      14.58243212        1       1.00000000       0.00000000       0.00000000       0.00000000       0.00000000       0.00000000       0.00000000
H        4.20923268       2.43020162      14.58243212        1       1.00000000       0.00000000       0.00000000       0.00000000       0.00000000       0.00000000       0.00000000
H        1.40307927       4.05033347      16.81106903        0       1.00000000       0.00003776      -0.00002004      -0.00003812       0.00008858      -0.00005970       0.00007191
H        5.61231889       1.62016681       7.77129349        0       1.00000000       0.00004866      -0.00005135      -0.00000584       0.00007332       0.00007198       0.00001620
H        4.20924605       4.05036540      16.81109546        0       1.00000000       0.00002432      -0.00002369       0.00003338       0.00002875      -0.00001333       0.00006352
H        2.80620112       1.62014266       7.77136271        0       1.00000000       0.00004209      -0.00007613      -0.00002011      -0.00014020      -0.00016553      -0.00006214
H        5.61236649       1.62012386      16.81102902        0       1.00000000      -0.00002537       0.00001572      -0.00006056      -0.00000282       0.00015917      -0.00001735
H        1.40307071       4.05035115       7.77137950        0       1.00000000       0.00001861      -0.00005953      -0.00003677      -0.00005202      -0.00005008       0.00002958
H        2.80612054       1.62013348      16.81106436        0       1.00000000       0.00001785      -0.00002997       0.00003213      -0.00004852      -0.00010947       0.00000818
H        4.20927651       4.05032079       7.77135990        0       1.00000000      -0.00000024       0.00007212       0.00003377       0.00006131       0.00005818      -0.00005200
20
Lattice="5.612310241546866 0.0 0.0 0.0 4.860403243099165 0.0 0.0 0.0 24.582432123328676" Properties=species:S:1:pos:R:3:tags:I:1:masses:R:1:momenta:R:3:forces:R:3 KEmax=25.851991011651638 iter=145640 volume=670.5618179858607 ns_energy=-13.621460764210068 last_walked_iter_clone=145558 energy=-13.621460791170248 stress="0.025729098464614762 5.565160738086909e-07 -1.1190527606786735e-06 5.565160738086909e-07 0.02572853860614072 -5.62664557289866e-07 -1.1190527606786735e-06 -5.62664557289866e-07 0.013193279333020804" pbc="T T F"
H        1.40307756       0.81006721      10.00000000        3       1.00000000       0.00000000       0.00000000       0.00000000       0.00000000       0.00000000       0.00000000
H        4.20923268       0.81006721      10.00000000        3       1.00000000       0.00000000       0.00000000       0.00000000       0.00000000       0.00000000       0.00000000
H        0.00000000       3.24026883      10.00000000        3       1.00000000       0.00000000       0.00000000       0.00000000       0.00000000       0.00000000       0.00000000
H        2.80615512       3.24026883      10.00000000        3       1.00000000       0.00000000       0.00000000       0.00000000       0.00000000       0.00000000       0.00000000
H        0.00000000       1.62013441      12.29121606        2       1.00000000       0.00000000       0.00000000       0.00000000       0.00000000       0.00000000       0.00000000
H        2.80615512       1.62013441      12.29121606        2       1.00000000       0.00000000       0.00000000       0.00000000       0.00000000       0.00000000       0.00000000
H        1.40307756       4.05033604      12.29121606        2       1.00000000       0.00000000       0.00000000       0.00000000       0.00000000       0.00000000       0.00000000
H        4.20923268       4.05033604      12.29121606        2       1.00000000       0.00000000       0.00000000       0.00000000       0.00000000       0.00000000       0.00000000
H        0.00000000       0.00000000      14.58243212        1       1.00000000       0.00000000       0.00000000       0.00000000       0.00000000       0.00000000       0.00000000
H        2.80615512       0.00000000      14.58243212        1       1.00000000       0.00000000       0.00000000       0.00000000       0.00000000       0.00000000       0.00000000
H        1.40307756       2.43020162      14.58243212        1       1.00000000       0.00000000       0.00000000       0.00000000       0.00000000       0.00000000       0.00000000
H        4.20923268       2.43020162      14.58243212        1       1.00000000       0.00000000       0.00000000       0.00000000       0.00000000       0.00000000       0.00000000
H        1.40310231       4.05024561      16.81110798        0       1.00000000       0.00000874       0.00001935       0.00001867       0.00008858      -0.00005970       0.00007191
H        0.00002438       1.62009847       7.77138543        0       1.00000000       0.00007447      -0.00000370       0.00002330       0.00007332       0.00007198       0.00001620
H        4.20927001       4.05030602      16.81103305        0       1.00000000      -0.00004285       0.00003754       0.00003768       0.00002875      -0.00001333       0.00006352
H        2.80617376       1.62008916       7.77134937        0       1.00000000      -0.00003844      -0.00001787      -0.00005814      -0.00014020      -0.00016553      -0.00006214
H        0.00002162       1.62003224      16.81108915        0       1.00000000       0.00013874       0.00000672       0.00001877      -0.00000282       0.00015917      -0.00001735
H        1.40309704       4.05030816       7.77136659        0       1.00000000      -0.00002598      -0.00001177      -0.00003928      -0.00005202      -0.00005008       0.00002958
H        2.80616832       1.62007648      16.81113499        0       1.00000000      -0.00004694      -0.00001541      -0.00000183      -0.00004852      -0.00010947       0.00000818
H        4.20925953       4.05030619       7.77135207        0       1.00000000      -0.00007566       0.00000305      -0.00001040       0.00006131       0.00005818      -0.00005200
20
Lattice="5.612310241546866 0.0 0.0 0.0 4.860403243099165 0.0 0.0 0.0 24.582432123328676" Properties=species:S:1:pos:R:3:tags:I:1:masses:R:1:momenta:R:3:forces:R:3 KEmax=25.851991011651638 iter=145640 volume=670.5618179858607 ns_energy=-13.62146076388613 last_walked_iter_clone=145592 energy=-13.621460791170248 stress="0.025729098464614762 5.565160738086909e-07 -1.1190527606786735e-06 5.565160738086909e-07 0.02572853860614072 -5.62664557289866e-07 -1.1190527606786735e-06 -5.62664557289866e-07 0.013193279333020804" pbc="T T F"
H        1.40307756       0.81006721      10.00000000        3       1.00000000       0.00000000       0.00000000       0.00000000       0.00000000       0.00000000       0.00000000
H        4.20923268       0.81006721      10.00000000        3       1.00000000       0.00000000       0.00000000       0.00000000       0.00000000       0.00000000       0.00000000
H        0.00000000       3.24026883      10.00000000        3       1.00000000       0.00000000       0.00000000       0.00000000       0.00000000       0.00000000       0.00000000
H        2.80615512       3.24026883      10.00000000        3       1.00000000       0.00000000       0.00000000       0.00000000       0.00000000       0.00000000       0.00000000
H        0.00000000       1.62013441      12.29121606        2       1.00000000       0.00000000       0.00000000       0.00000000       0.00000000       0.00000000       0.00000000
H        2.80615512       1.62013441      12.29121606        2       1.00000000       0.00000000       0.00000000       0.00000000       0.00000000       0.00000000       0.00000000
H        1.40307756       4.05033604      12.29121606        2       1.00000000       0.00000000       0.00000000       0.00000000       0.00000000       0.00000000       0.00000000
H        4.20923268       4.05033604      12.29121606        2       1.00000000       0.00000000       0.00000000       0.00000000       0.00000000       0.00000000       0.00000000
H        0.00000000       0.00000000      14.58243212        1       1.00000000       0.00000000       0.00000000       0.00000000       0.00000000       0.00000000       0.00000000
H        2.80615512       0.00000000      14.58243212        1       1.00000000       0.00000000       0.00000000       0.00000000       0.00000000       0.00000000       0.00000000
H        1.40307756       2.43020162      14.58243212        1       1.00000000       0.00000000       0.00000000       0.00000000       0.00000000       0.00000000       0.00000000
H        4.20923268       2.43020162      14.58243212        1       1.00000000       0.00000000       0.00000000       0.00000000       0.00000000       0.00000000       0.00000000
H        1.40309973       4.05035655      16.81108320        0       1.00000000      -0.00003835      -0.00004599      -0.00001119       0.00008858      -0.00005970       0.00007191
H        0.00004169       1.62013630       7.77136819        0       1.00000000       0.00003409      -0.00001564       0.00001423       0.00007332       0.00007198       0.00001620
H        4.20924424       4.05033979      16.81114413        0       1.00000000      -0.00009485      -0.00004921      -0.00004935       0.00002875      -0.00001333       0.00006352
H        2.80621699       1.62016593       7.77132791        0       1.00000000      -0.00005446       0.00005429       0.00000382      -0.00014020      -0.00016553      -0.00006214
H        0.00009508       1.62013279      16.81107757        0       1.00000000      -0.00004139       0.00003541      -0.00005352      -0.00000282       0.00015917      -0.00001735
H        1.40311924       4.05034818       7.77138208        0       1.00000000      -0.00006470       0.00001369       0.00010712      -0.00005202      -0.00005008       0.00002958
H        2.80621939       1.62014932      16.81104569        0       1.00000000      -0.00003522      -0.00000197       0.00003235      -0.00004852      -0.00010947       0.00000818
H        4.20926570       4.05035416       7.77133482        0       1.00000000       0.00000580       0.00001329      -0.00000803       0.00006131       0.00005818      -0.00005200
20
Lattice="5.612310241546866 0.0 0.0 0.0 4.860403243099165 0.0 0.0 0.0 24.582432123328676" Properties=species:S:1:pos:R:3:tags:I:1:masses:R:1:momenta:R:3:forces:R:3 KEmax=25.851991011651638 iter=145640 volume=670.5618179858607 ns_energy=-13.621460763704071 last_walked_iter_clone=145398 energy=-13.621460791170248 stress="0.025729098464614762 5.565160738086909e-07 -1.1190527606786735e-06 5.565160738086909e-07 0.02572853860614072 -5.62664557289866e-07 -1.1190527606786735e-06 -5.62664557289866e-07 0.013193279333020804" pbc="T T F"
H        1.40307756       0.81006721      10.00000000        3       1.00000000       0.00000000       0.00000000       0.00000000       0.00000000       0.00000000       0.00000000