20
Lattice="5.612310241546866 0.0 0.0 0.0 4.860403243099165 0.0 0.0 0.0 24.582432123328676" Properties=species:S:1:pos:R:3:tags:I:1:masses:R:1:momenta:R:3:forces:R:3 KEmax=25.851991011651638 iter=239999 volume=670.5618179858607 ns_energy=-13.621460814371401 last_walked_iter_clone=238358 energy=-13.621439474901022 stress="0.025728876868213662 -4.614726740537336e-09 9.198880817620926e-09 -4.614726740537336e-09 0.025728210453313 -1.7972467459006787e-08 9.198880817620926e-09 -1.7972467459006787e-08 0.013195013154920152" pbc="T T F"
H        1.40307756       0.81006721      10.00000000        3       1.00000000       0.00000000       0.00000000       0.00000000       0.00000000       0.00000000       0.00000000
H        4.20923268       0.81006721      10.00000000        3       1.00000000       0.00000000       0.00000000       0.00000000       0.00000000       0.00000000       0.00000000
H        0.00000000       3.24026883      10.00000000        3       1.00000000       0.00000000       0.00000000       0.00000000       0.00000000       0.00000000       0.00000000
H        2.80615512       3.24026883      10.00000000        3       1.00000000       0.00000000       0.00000000       0.00000000       0.00000000       0.00000000       0.00000000
H        0.00000000       1.62013441      12.29121606        2       1.00000000       0.00000000       0.00000000       0.00000000       0.00000000       0.00000000       0.00000000
H        2.80615512       1.62013441      12.29121606        2       1.00000000       0.00000000       0.00000000       0.00000000       0.00000000       0.00000000       0.00000000
H        1.40307756       4.05033604      12.29121606        2       1.00000000       0.00000000       0.00000000       0.00000000       0.00000000       0.00000000       0.00000000
H        4.20923268       4.05033604      12.29121606        2       1.00000000       0.00000000       0.00000000       0.00000000       0.00000000       0.00000000       0.00000000
H        0.00000000       0.00000000      14.58243212        1       1.00000000       0.00000000       0.00000000       0.00000000       0.00000000       0.00000000       0.00000000
H        2.80615512       0.00000000      14.58243212        1       1.00000000       0.00000000       0.00000000       0.00000000       0.00000000       0.00000000       0.00000000
H        1.40307756       2.43020162      14.58243212        1       1.00000000       0.00000000       0.00000000       0.00000000       0.00000000       0.00000000       0.00000000
H        4.20923268       2.43020162      14.58243212        1       1.00000000       0.00000000       0.00000000       0.00000000       0.00000000       0.00000000       0.00000000
H        1.40307753       4.05033722      16.81106509        0       1.00000000       0.00000023       0.00000090       0.00000153      -0.00094651       0.00476809       0.00000087
H        5.61231129       1.62013429       7.77136816        0       1.00000000      -0.00000070      -0.00000134      -0.00000020      -0.00041567      -0.00632740       0.00000138
H        4.20923258       4.05033661      16.81106462        0       1.00000000       0.00000090       0.00000063      -0.00000090       0.00094690       0.00487153      -0.00000448
H        2.80615586       1.62013505       7.77136781        0       1.00000000      -0.00000050       0.00000076      -0.00000033       0.00041914      -0.00626353      -0.00000872
H       -0.00000031       1.62013495      16.81106509        0       1.00000000      -0.00000030       0.00000052       0.00000015       0.00117291      -0.00481158       0.00000055
H        1.40307733       4.05033610       7.77136764        0       1.00000000      -0.00000064      -0.00000011      -0.00000063       0.00048224       0.00629053      -0.00000140
H        2.80615461       1.62013528      16.81106513        0       1.00000000       0.00000139      -0.00000111       0.00000033      -0.00117361      -0.00482971      -0.00000094
H        4.20923285       4.05033666       7.77136734        0       1.00000000       0.00000019       0.00000090      -0.00000073      -0.00048500       0.00629674      -0.00000084
20
Lattice="5.612310241546866 0.0 0.0 0.0 4.860403243099165 0.0 0.0 0.0 24.582432123328676" Properties=species:S:1:pos:R:3:tags:I:1:masses:R:1:momenta:R:3:forces:R:3 KEmax=25.851991011651638 iter=239999 volume=670.5618179858607 ns_energy=-13.621460814371503 last_walked_iter_clone=239705 energy=-13.621439474901022 stress="0.025728876868213662 -4.614726740537336e-09 9.198880817620926e-09 -4.614726740537336e-09 0.025728210453313 -1.7972467459006787e-08 9.198880817620926e-09 -1.7972467459006787e-08 0.013195013154920152" pbc="T T F"
H        1.40307756       0.81006721      10.00000000        3       1.00000000       0.00000000       0.00000000       0.00000000       0.00000000       0.00000000       0.00000000
H        4.20923268       0.81006721      10.00000000        3       1.00000000       0.00000000       0.00000000       0.00000000       0.00000000       0.00000000       0.00000000
H        0.00000000       3.24026883      10.00000000        3       1.00000000       0.00000000       0.00000000       0.00000000       0.00000000       0.00000000       0.00000000
H        2.80615512       3.24026883      10.00000000        3       1.00000000       0.00000000       0.00000000       0.00000000       0.00000000       0.00000000       0.00000000
H        0.00000000       1.62013441      12.29121606        2       1.00000000       0.00000000       0.00000000       0.00000000       0.00000000       0.00000000       0.00000000
H        2.80615512       1.62013441      12.29121606        2       1.00000000       0.00000000       0.00000000       0.00000000       0.00000000       0.00000000       0.00000000
H        1.40307756       4.05033604      12.29121606        2       1.00000000       0.00000000       0.00000000       0.00000000       0.00000000       0.00000000       0.00000000
H        4.20923268       4.05033604      12.29121606        2       1.00000000       0.00000000       0.00000000       0.00000000       0.00000000       0.00000000       0.00000000
H        0.00000000       0.00000000      14.58243212        1       1.00000000       0.00000000       0.00000000       0.00000000       0.00000000       0.00000000       0.00000000
H        2.80615512       0.00000000      14.58243212        1       1.00000000       0.00000000       0.00000000       0.00000000       0.00000000       0.00000000       0.00000000
H        1.40307756       2.43020162      14.58243212        1       1.00000000       0.00000000       0.00000000       0.00000000       0.00000000       0.00000000       0.00000000
H        4.20923268       2.43020162      14.58243212        1       1.00000000       0.00000000       0.00000000       0.00000000       0.00000000       0.00000000       0.00000000
H        1.40307702       4.05033592      16.81106512        0       1.00000000       0.00000034      -0.00000018      -0.00000083      -0.00094651       0.00476809       0.00000087
H        0.00000073       1.62013466       7.77136660        0       1.00000000       0.00000079       0.00000001       0.00000000      -0.00041567      -0.00632740       0.00000138
H        4.20923273       4.05033581      16.81106550        0       1.00000000       0.00000074       0.00000017       0.00000174       0.00094690       0.00487153      -0.00000448
H        2.80615574       1.62013479       7.77136655        0       1.00000000       0.00000015       0.00000036       0.00000021       0.00041914      -0.00626353      -0.00000872
H        0.00000003       1.62013455      16.81106388        0       1.00000000       0.00000097      -0.00000046       0.00000091       0.00117291      -0.00481158       0.00000055
H        1.40307765       4.05033662       7.77136655        0       1.00000000       0.00000135      -0.00000061       0.00000157       0.00048224       0.00629053      -0.00000140
H        2.80615551       1.62013409      16.81106492        0       1.00000000       0.00000022       0.00000116      -0.00000046      -0.00117361      -0.00482971      -0.00000094
H        4.20923271       4.05033555       7.77136696        0       1.00000000      -0.00000033      -0.00000066      -0.00000071      -0.00048500       0.00629674      -0.00000084
20
Lattice="5.612310241546866 0.0 0.0 0.0 4.860403243099165 0.0 0.0 0.0 24.582432123328676" Properties=species:S:1:pos:R:3:tags:I:1:masses:R:1:momenta:R:3:forces:R:3 KEmax=25.851991011651638 iter=239999 volume=670.5618179858607 ns_energy=-13.62146081437153 last_walked_iter_clone=239699 energy=-13.621439474901022 stress="0.025728876868213662 -4.614726740537336e-09 9.198880817620926e-09 -4.614726740537336e-09 0.025728210453313 -1.7972467459006787e-08 9.198880817620926e-09 -1.7972467459006787e-08 0.013195013154920152" pbc="T T F"
H        1.40307756       0.81006721      10.00000000        3       1.00000000       0.00000000       0.00000000       0.00000000       0.00000000       0.00000000       0.00000000
H        4.20923268       0.81006721      10.00000000        3       1.00000000       0.00000000       0.00000000       0.00000000       0.00000000       0.00000000       0.00000000
H        0.00000000       3.24026883      10.00000000        3       1.00000000       0.00000000       0.00000000       0.00000000       0.00000000       0.00000000       0.00000000
H        2.80615512       3.24026883      10.00000000        3       1.00000000       0.00000000       0.00000000       0.00000000       0.00000000       0.00000000       0.00000000
H        0.00000000       1.62013441      12.29121606        2       1.00000000       0.00000000       0.00000000       0.00000000       0.00000000       0.00000000       0.00000000
H        2.80615512       1.62013441      12.29121606        2       1.00000000       0.00000000       0.00000000       0.00000000       0.00000000       0.00000000       0.00000000
H        1.40307756       4.05033604      12.29121606        2       1.00000000       0.00000000       0.00000000       0.00000000       0.00000000       0.00000000       0.00000000
H        4.20923268       4.05033604      12.29121606        2       1.00000000       0.00000000       0.00000000       0.00000000       0.00000000       0.00000000       0.00000000
H        0.00000000       0.00000000      14.58243212        1       1.00000000       0.00000000       0.00000000       0.00000000       0.00000000       0.00000000       0.00000000
H        2.80615512       0.00000000      14.58243212        1       1.00000000       0.00000000       0.00000000       0.00000000       0.00000000       0.00000000       0.00000000
H        1.40307756       2.43020162      14.58243212        1       1.00000000       0.00000000       0.00000000       0.00000000       0.00000000       0.00000000       0.00000000
H        4.20923268       2.43020162      14.58243212        1       1.00000000       0.00000000       0.00000000       0.00000000       0.00000000       0.00000000       0.00000000
H        1.40307868       4.05033643      16.81106539        0       1.00000000      -0.00000116       0.00000018      -0.00000196      -0.00094651       0.00476809       0.00000087
H        5.61231063       1.62013415       7.77136731        0       1.00000000      -0.00000073      -0.00000063       0.00000063      -0.00041567      -0.00632740       0.00000138
H        4.20923336       4.05033457      16.81106511        0       1.00000000      -0.00000080      -0.00000028       0.00000012       0.00094690       0.00487153      -0.00000448
H        2.80615514       1.62013382       7.77136702        0       1.00000000      -0.00000006      -0.00000005       0.00000055       0.00041914      -0.00626353      -0.00000872
H        5.61231058       1.62013403      16.81106526        0       1.00000000      -0.00000120      -0.00000014       0.00000005       0.00117291      -0.00481158       0.00000055
H        1.40307833       4.05033564       7.77136743        0       1.00000000       0.00000108       0.00000006      -0.00000022       0.00048224       0.00629053      -0.00000140
H        2.80615504       1.62013393      16.81106483        0       1.00000000      -0.00000142      -0.00000037       0.00000012      -0.00117361      -0.00482971      -0.00000094
H        4.20923310       4.05033593       7.77136757        0       1.00000000       0.00000084      -0.00000002      -0.00000076      -0.00048500       0.00629674      -0.00000084
20
Lattice="5.612310241546866 0.0 0.0 0.0 4.860403243099165 0.0 0.0 0.0 24.582432123328676" Properties=species:S:1:pos:R:3:tags:I:1:masses:R:1:momenta:R:3:forces:R:3 KEmax=25.851991011651638 iter=239999 volume=670.5618179858607 ns_energy=-13.621460814371435 last_walked_iter_clone=239941 energy=-13.621439474901022 stress="0.025728876868213662 -4.614726740537336e-09 9.198880817620926e-09 -4.614726740537336e-09 0.025728210453313 -1.7972467459006787e-08 9.198880817620926e-09 -1.7972467459006787e-08 0.013195013154920152" pbc="T T F"
H        1.40307756       0.81006721      10.00000000        3       1.00000000       0.00000000       0.00000000       0.00000000       0.00000000       0.00000000       0.00000000
H        4.20923268       0.81006721      10.00000000        3       1.00000000       0.00000000       0.00000000       0.00000000       0.00000000       0.00000000       0.00000000
H        0.00000000       3.24026883      10.00000000        3       1.00000000       0.00000000       0.00000000       0.00000000       0.00000000       0.00000000       0.00000000
H        2.80615512       3.24026883      10.00000000        3       1.00000000       0.00000000       0.00000000       0.00000000       0.00000000       0.00000000       0.00000000
H        0.00000000       1.62013441      12.29121606        2       1.00000000       0.00000000       0.00000000       0.00000000       0.00000000       0.00000000       0.00000000
H        2.80615512       1.62013441      12.29121606        2       1.00000000       0.00000000       0.00000000       0.00000000       0.00000000       0.00000000       0.00000000
H        1.40307756       4.05033604      12.29121606        2       1.00000000       0.00000000       0.00000000       0.00000000       0.00000000       0.00000000       0.00000000
H        4.20923268       4.05033604      12.29121606        2       1.00000000       0.00000000       0.00000000       0.00000000       0.00000000       0.00000000       0.00000000
H        0.00000000       0.00000000      14.58243212        1       1.00000000       0.00000000       0.00000000       0.00000000       0.00000000       0.00000000       0.00000000
H        2.80615512       0.00000000      14.58243212        1       1.00000000       0.00000000       0.00000000       0.00000000       0.00000000       0.00000000       0.00000000
H        1.40307756       2.43020162      14.58243212        1       1.00000000       0.00000000       0.00000000       0.00000000       0.00000000       0.00000000       0.00000000
H        4.20923268       2.43020162      14.58243212        1       1.00000000       0.00000000       0.00000000       0.00000000       0.00000000       0.00000000       0.00000000
H        1.40307684       4.05033655      16.81106490        0       1.00000000       0.00000018       0.00000034      -0.00000007      -0.00094651       0.00476809       0.00000087
H        5.61230985       1.62013442       7.77136680        0       1.00000000      -0.00000090       0.00000022       0.00000074      -0.00041567      -0.00632740       0.00000138
H        4.20923191       4.05033634      16.81106527        0       1.00000000       0.00000059       0.00000079       0.00000170       0.00094690       0.00487153      -0.00000448
H        2.80615515       1.62013398       7.77136687        0       1.00000000       0.00000063       0.00000002      -0.00000126       0.00041914      -0.00626353      -0.00000872
H       -0.00000035       1.62013382      16.81106483        0       1.00000000       0.00000000       0.00000016      -0.00000041       0.00117291      -0.00481158       0.00000055
H        1.40307734       4.05033581       7.77136794        0       1.00000000      -0.00000065      -0.00000247       0.00000040       0.00048224       0.00629053      -0.00000140
H        2.80615409       1.62013493      16.81106450        0       1.00000000      -0.00000070       0.00000045      -0.00000090      -0.00117361      -0.00482971      -0.00000094
H        4.20923222       4.05033604       7.77136734        0       1.00000000       0.00000013      -0.00000055       0.00000024      -0.00048500       0.00629674      -0.00000084
20
Lattice="5.612310241546866 0.0 0.0 0.0 4.860403243099165 0.0 0.0 0.0 24.582432123328676" Properties=species:S:1:pos:R:3:tags:I:1:masses:R:1:momenta:R:3:forces:R:3 KEmax=25.851991011651638 iter=239999 volume=670.5618179858607 ns_energy=-13.621460814371341 last_walked_iter_clone=238947 energy=-13.621439474901022 stress="0.025728876868213662 -4.614726740537336e-09 9.198880817620926e-09 -4.614726740537336e-09 0.025728210453313 -1.7972467459006787e-08 9.198880817620926e-09 -1.7972467459006787e-08 0.013195013154920152" pbc="T T F"
H        1.40307756       0.81006721      10.00000000        3       1.00000000       0.00000000       0.00000000       0.00000000       0.00000000       0.00000000       0.00000000
H        4.20923268       0.81006721      10.00000000        3       1.00000000       0.00000000       0.00000000       0.00000000       0.00000000       0.00000000       0.00000000
H        0.00000000       3.24026883      10.00000000        3       1.00000000       0.00000000       0.00000000       0.00000000       0.00000000       0.00000000       0.00000000
H        2.80615512       3.24026883      10.00000000        3       1.00000000       0.00000000       0.00000000       0.00000000       0.00000000       0.00000000       0.00000000
H        0.00000000       1.62013441      12.29121606        2       1.00000000       0.00000000       0.00000000       0.00000000       0.00000000       0.00000000       0.00000000
H        2.80615512       1.62013441      12.29121606        2       1.00000000       0.00000000       0.00000000       0.00000000       0.00000000       0.00000000       0.00000000
H        1.40307756       4.05033604      12.29121606        2       1.00000000       0.00000000       0.00000000       0.00000000       0.00000000       0.00000000       0.00000000
H        4.20923268       4.05033604      12.29121606        2       1.00000000       0.00000000       0.00000000       0.00000000       0.00000000       0.00000000       0.00000000
H        0.00000000       0.00000000      14.58243212        1       1.00000000       0.00000000       0.00000000       0.00000000       0.00000000       0.00000000       0.00000000
H        2.80615512       0.00000000      14.58243212        1       1.00000000       0.00000000       0.00000000       0.00000000       0.00000000       0.00000000       0.00000000
H        1.40307756       2.43020162      14.58243212        1       1.00000000       0.00000000       0.00000000       0.00000000       0.00000000       0.00000000       0.00000000
H        4.20923268       2.43020162      14.58243212        1       1.00000000       0.00000000       0.00000000       0.00000000       0.00000000       0.00000000       0.00000000
H        1.40307834       4.05033620      16.81106524        0       1.00000000      -0.00000030       0.00000082       0.00000190      -0.00094651       0.00476809       0.00000087
H       -0.00000029       1.62013472       7.77136681        0       1.00000000      -0.00000005       0.00000042       0.00000008      -0.00041567      -0.00632740       0.00000138
H        4.20923298       4.05033594      16.81106450        0       1.00000000       0.00000001       0.00000118      -0.00000107       0.00094690       0.00487153      -0.00000448
H        2.80615409       1.62013428       7.77136606        0       1.00000000      -0.00000012       0.00000021      -0.00000109       0.00041914      -0.00626353      -0.00000872
H        5.61230987       1.62013392      16.81106500        0       1.00000000       0.00000066      -0.00000006       0.00000036       0.00117291      -0.00481158       0.00000055
H        1.40307724       4.05033572       7.77136722        0       1.00000000      -0.00000064       0.00000064      -0.00000067       0.00048224       0.00629053      -0.00000140
H        2.80615545       1.62013439      16.81106493        0       1.00000000       0.00000096       0.00000071      -0.00000073      -0.00117361      -0.00482971      -0.00000094
H        4.20923283       4.05033550       7.77136651        0       1.00000000      -0.00000070      -0.00000021      -0.00000040      -0.00048500       0.00629674      -0.00000084
20
Lattice="5.612310241546866 0.0 0.0 0.0 4.860403243099165 0.0 0.0 0.0 24.582432123328676" Properties=species:S:1:pos:R:3:tags:I:1:masses:R:1:momenta:R:3:forces:R:3 KEmax=25.851991011651638 iter=239999 volume=670.5618179858607 ns_energy=-13.621460814371666 last_walked_iter_clone=239780 energy=-13.621439474901022 stress="0.025728876868213662 -4.614726740537336e-09 9.198880817620926e-09 -4.614726740537336e-09 0.025728210453313 -1.7972467459006787e-08 9.198880817620926e-09 -1.7972467459006787e-08 0.013195013154920152" pbc="T T F"
H        1.40307756       0.81006721      10.00000000        3       1.00000000       0.00000000       0.00000000       0.00000000       0.00000000       0.00000000       0.00000000
H        4.20923268       0.81006721      10.00000000        3       1.00000000       0.00000000       0.00000000       0.00000000       0.00000000       0.00000000       0.00000000
H        0.00000000       3.24026883      10.00000000        3       1.00000000       0.00000000       0.00000000       0.00000000       0.00000000       0.00000000       0.00000000
H        2.80615512       3.24026883      10.00000000        3       1.00000000       0.00000000       0.00000000       0.00000000       0.00000000       0.00000000       0.00000000
H        0.00000000       1.62013441      12.29121606        2       1.00000000       0.00000000       0.00000000       0.00000000       0.00000000       0.00000000       0.00000000
H        2.80615512       1.62013441      12.29121606        2       1.00000000       0.00000000       0.00000000       0.00000000       0.00000000       0.00000000       0.00000000
H        1.40307756       4.05033604      12.29121606        2       1.00000000       0.00000000       0.00000000       0.00000000       0.00000000       0.00000000       0.00000000
H        4.20923268       4.05033604      12.29121606        2       1.00000000       0.00000000       0.00000000       0.00000000       0.00000000       0.00000000       0.00000000
H        0.00000000       0.00000000      14.58243212        1       1.00000000       0.00000000       0.00000000       0.00000000       0.00000000       0.00000000       0.00000000
H        2.80615512       0.00000000      14.58243212        1       1.00000000       0.00000000       0.00000000       0.00000000       0.00000000       0.00000000       0.00000000
H        1.40307756       2.43020162      14.58243212        1       1.00000000       0.00000000       0.00000000       0.00000000       0.00000000       0.00000000       0.00000000
H        4.20923268       2.43020162      14.58243212        1       1.00000000       0.00000000       0.00000000       0.00000000       0.00000000       0.00000000       0.00000000
H        1.40307804       4.05033499      16.81106529        0       1.00000000       0.00000031      -0.00000050       0.00000181      -0.00094651       0.00476809       0.00000087
H        5.61231093       1.62013453       7.77136757        0       1.00000000       0.00000006      -0.00000109      -0.00000067      -0.00041567      -0.00632740       0.00000138
H        4.20923284       4.05033585      16.81106491        0       1.00000000      -0.00000034       0.00000034      -0.00000022       0.00094690       0.00487153      -0.00000448
H        2.80615584       1.62013507       7.77136651        0       1.00000000       0.00000020       0.00000005      -0.00000075       0.00041914      -0.00626353      -0.00000872
H       -0.00000082       1.62013388      16.81106514        0       1.00000000       0.00000083       0.00000006       0.00000019       0.00117291      -0.00481158       0.00000055
H        1.40307704       4.05033644       7.77136779        0       1.00000000       0.00000099      -0.00000080       0.00000073       0.00048224       0.00629053      -0.00000140
H        2.80615445       1.62013341      16.81106505        0       1.00000000       0.00000046      -0.00000094      -0.00000096      -0.00117361      -0.00482971      -0.00000094
H        4.20923318       4.05033682       7.77136734        0       1.00000000       0.00000030      -0.00000083       0.00000023      -0.00048500       0.00629674      -0.00000084
20
Lattice="5.612310241546866 0.0 0.0 0.0 4.860403243099165 0.0 0.0 0.0 24.582432123328676" Properties=species:S:1:pos:R:3:tags:I:1:masses:R:1:momenta:R:3:forces:R:3 KEmax=25.851991011651638 iter=239999 volume=670.5618179858607 ns_energy=-13.62146081437145 last_walked_iter_clone=239639 energy=-13.621439474901022 stress="0.025728876868213662 -4.614726740537336e-09 9.198880817620926e-09 -4.614726740537336e-09 0.025728210453313 -1.7972467459006787e-08 9.198880817620926e-09 -1.7972467459006787e-08 0.013195013154920152" pbc="T T F"
H        1.40307756       0.81006721      10.00000000        3       1.00000000       0.00000000       0.00000000       0.00000000       0.00000000       0.00000000       0.00000000
H        4.20923268       0.81006721      10.00000000        3       1.00000000       0.00000000       0.00000000       0.00000000       0.00000000       0.00000000       0.00000000
H        0.00000000       3.24026883      10.00000000        3       1.00000000       0.00000000       0.00000000       0.00000000       0.00000000       0.00000000       0.00000000
H        2.80615512       3.24026883      10.00000000        3       1.00000000       0.00000000       0.00000000       0.00000000       0.00000000       0.00000000       0.00000000
H        0.00000000       1.62013441      12.29121606        2       1.00000000       0.00000000       0.00000000       0.00000000       0.00000000       0.00000000       0.00000000
H        2.80615512       1.62013441      12.29121606        2       1.00000000       0.00000000       0.00000000       0.00000000       0.00000000       0.00000000       0.00000000
H        1.40307756       4.05033604      12.29121606        2       1.00000000       0.00000000       0.00000000       0.00000000       0.00000000       0.00000000       0.00000000
H        4.20923268       4.05033604      12.29121606        2       1.00000000       0.00000000       0.00000000       0.00000000       0.00000000       0.00000000       0.00000000
H        0.00000000       0.00000000      14.58243212        1       1.00000000       0.00000000       0.00000000       0.00000000       0.00000000       0.00000000       0.00000000
H        2.80615512       0.00000000      14.58243212        1       1.00000000       0.00000000       0.00000000       0.00000000       0.00000000       0.00000000       0.00000000
H        1.40307756       2.43020162      14.58243212        1       1.00000000       0.00000000       0.00000000       0.00000000       0.00000000       0.00000000       0.00000000
H        4.20923268       2.43020162      14.58243212        1       1.00000000       0.00000000       0.00000000       0.00000000       0.00000000       0.00000000       0.00000000
H        1.40307821       4.05033575      16.81106483        0       1.00000000       0.00000010       0.00000224      -0.00000020      -0.00094651       0.00476809       0.00000087
H       -0.00000043       1.62013420       7.77136667        0       1.00000000      -0.00000070       0.00000142      -0.00000052      -0.00041567      -0.00632740       0.00000138
H        4.20923287       4.05033588      16.81106510        0       1.00000000      -0.00000072      -0.00000016      -0.00000172       0.00094690       0.00487153      -0.00000448
H        2.80615472       1.62013475       7.77136718        0       1.00000000       0.00000006       0.00000023      -0.00000067       0.00041914      -0.00626353      -0.00000872
H        0.00000043       1.62013384      16.81106445        0       1.00000000       0.00000004      -0.00000003       0.00000010       0.00117291      -0.00481158       0.00000055
H        1.40307753       4.05033689       7.77136740        0       1.00000000       0.00000031      -0.00000023      -0.00000122       0.00048224       0.00629053      -0.00000140
H        2.80615516       1.62013408      16.81106558        0       1.00000000       0.00000013      -0.00000083      -0.00000055      -0.00117361      -0.00482971      -0.00000094
H        4.20923332       4.05033653       7.77136758        0       1.00000000      -0.00000021      -0.00000120       0.00000049      -0.00048500       0.00629674      -0.00000084
20
Lattice="5.612310241546866 0.0 0.0 0.0 4.860403243099165 0.0 0.0 0.0 24.582432123328676" Properties=species:S:1:pos:R:3:tags:I:1:masses:R:1:momenta:R:3:forces:R:3 KEmax=25.851991011651638 iter=239999 volume=670.5618179858607 ns_energy=-13.62146081437166 last_walked_iter_clone=239924 energy=-13.621439474901022 stress="0.025728876868213662 -4.614726740537336e-09 9.198880817620926e-09 -4.614726740537336e-09 0.025728210453313 -1.7972467459006787e-08 9.198880817620926e-09 -1.7972467459006787e-08 0.013195013154920152" pbc="T T F"
H        1.40307756       0.81006721      10.00000000        3       1.00000000       0.00000000       0.00000000       0.00000000       0.00000000       0.00000000       0.00000000