20
Lattice="5.612310241546866 0.0 0.0 0.0 4.860403243099165 0.0 0.0 0.0 24.582432123328676" Properties=species:S:1:pos:R:3:tags:I:1:masses:R:1:momenta:R:3:forces:R:3 KEmax=25.851991011651638 iter=224247 volume=670.5618179858607 ns_energy=-13.621460814361921 last_walked_iter_clone=223542 energy=-13.621460814368023 stress="0.025729322828772973 6.172103884957349e-09 -1.2410263121168155e-08 6.172103884957349e-09 0.025729357010127598 3.4282503451233463e-08 -1.2410263121168155e-08 3.4282503451233463e-08 0.013195002719979695" pbc="T T F"
H        1.40307756       0.81006721      10.00000000        3       1.00000000       0.00000000       0.00000000       0.00000000       0.00000000       0.00000000       0.00000000
H        4.20923268       0.81006721      10.00000000        3       1.00000000       0.00000000       0.00000000       0.00000000       0.00000000       0.00000000       0.00000000
H        0.00000000       3.24026883      10.00000000        3       1.00000000       0.00000000       0.00000000       0.00000000       0.00000000       0.00000000       0.00000000
H        2.80615512       3.24026883      10.00000000        3       1.00000000       0.00000000       0.00000000       0.00000000       0.00000000       0.00000000       0.00000000
H        0.00000000       1.62013441      12.29121606        2       1.00000000       0.00000000       0.00000000       0.00000000       0.00000000       0.00000000       0.00000000
H        2.80615512       1.62013441      12.29121606        2       1.00000000       0.00000000       0.00000000       0.00000000       0.00000000       0.00000000       0.00000000
H        1.40307756       4.05033604      12.29121606        2       1.00000000       0.00000000       0.00000000       0.00000000       0.00000000       0.00000000       0.00000000
H        4.20923268       4.05033604      12.29121606        2       1.00000000       0.00000000       0.00000000       0.00000000       0.00000000       0.00000000       0.00000000
H        0.00000000       0.00000000      14.58243212        1       1.00000000       0.00000000       0.00000000       0.00000000       0.00000000       0.00000000       0.00000000
H        2.80615512       0.00000000      14.58243212        1       1.00000000       0.00000000       0.00000000       0.00000000       0.00000000       0.00000000       0.00000000
H        1.40307756       2.43020162      14.58243212        1       1.00000000       0.00000000       0.00000000       0.00000000       0.00000000       0.00000000       0.00000000
H        4.20923268       2.43020162      14.58243212        1       1.00000000       0.00000000       0.00000000       0.00000000       0.00000000       0.00000000       0.00000000
H        1.40307825       4.05033570      16.81106532        0       1.00000000       0.00000006      -0.00000129       0.00000077      -0.00000347       0.00000191       0.00000156
H       -0.00000078       1.62013404       7.77136821        0       1.00000000      -0.00000120       0.00000004       0.00000071       0.00000303      -0.00000244      -0.00000096
H        4.20923295       4.05033696      16.81106525        0       1.00000000      -0.00000056      -0.00000004      -0.00000090       0.00000380      -0.00000268      -0.00000226
H        2.80615361       1.62013413       7.77136760        0       1.00000000       0.00000111      -0.00000027       0.00000084      -0.00000346      -0.00000125      -0.00000046
H       -0.00000076       1.62013428      16.81106493        0       1.00000000       0.00000182      -0.00000028       0.00000051       0.00000271      -0.00000160       0.00000118
H        1.40307679       4.05033590       7.77136791        0       1.00000000       0.00000021       0.00000002      -0.00000286      -0.00000097       0.00000356      -0.00000063
H        2.80615456       1.62013465      16.81106513        0       1.00000000       0.00000170      -0.00000015       0.00000151      -0.00000231      -0.00000041       0.00000090
H        4.20923222       4.05033483       7.77136732        0       1.00000000       0.00000059       0.00000053       0.00000087       0.00000077       0.00000114      -0.00000369
20
Lattice="5.612310241546866 0.0 0.0 0.0 4.860403243099165 0.0 0.0 0.0 24.582432123328676" Properties=species:S:1:pos:R:3:tags:I:1:masses:R:1:momenta:R:3:forces:R:3 KEmax=25.851991011651638 iter=224247 volume=670.5618179858607 ns_energy=-13.621460814362509 last_walked_iter_clone=224002 energy=-13.621460814368023 stress="0.025729322828772973 6.172103884957349e-09 -1.2410263121168155e-08 6.172103884957349e-09 0.025729357010127598 3.4282503451233463e-08 -1.2410263121168155e-08 3.4282503451233463e-08 0.013195002719979695" pbc="T T F"
H        1.40307756       0.81006721      10.00000000        3       1.00000000       0.00000000       0.00000000       0.00000000       0.00000000       0.00000000       0.00000000
H        4.20923268       0.81006721      10.00000000        3       1.00000000       0.00000000       0.00000000       0.00000000       0.00000000       0.00000000       0.00000000
H        0.00000000       3.24026883      10.00000000        3       1.00000000       0.00000000       0.00000000       0.00000000       0.00000000       0.00000000       0.00000000
H        2.80615512       3.24026883      10.00000000        3       1.00000000       0.00000000       0.00000000       0.00000000       0.00000000       0.00000000       0.00000000
H        0.00000000       1.62013441      12.29121606        2       1.00000000       0.00000000       0.00000000       0.00000000       0.00000000       0.00000000       0.00000000
H        2.80615512       1.62013441      12.29121606        2       1.00000000       0.00000000       0.00000000       0.00000000       0.00000000       0.00000000       0.00000000
H        1.40307756       4.05033604      12.29121606        2       1.00000000       0.00000000       0.00000000       0.00000000       0.00000000       0.00000000       0.00000000
H        4.20923268       4.05033604      12.29121606        2       1.00000000       0.00000000       0.00000000       0.00000000       0.00000000       0.00000000       0.00000000
H        0.00000000       0.00000000      14.58243212        1       1.00000000       0.00000000       0.00000000       0.00000000       0.00000000       0.00000000       0.00000000
H        2.80615512       0.00000000      14.58243212        1       1.00000000       0.00000000       0.00000000       0.00000000       0.00000000       0.00000000       0.00000000
H        1.40307756       2.43020162      14.58243212        1       1.00000000       0.00000000       0.00000000       0.00000000       0.00000000       0.00000000       0.00000000
H        4.20923268       2.43020162      14.58243212        1       1.00000000       0.00000000       0.00000000       0.00000000       0.00000000       0.00000000       0.00000000
H        1.40307846       4.05033559      16.81106437        0       1.00000000       0.00000035       0.00000011       0.00000122      -0.00000347       0.00000191       0.00000156
H        5.61230908       1.62013467       7.77136789        0       1.00000000       0.00000070      -0.00000118      -0.00000054       0.00000303      -0.00000244      -0.00000096
H        4.20923284       4.05033603      16.81106447        0       1.00000000       0.00000192       0.00000002       0.00000094       0.00000380      -0.00000268      -0.00000226
H        2.80615426       1.62013479       7.77136693        0       1.00000000       0.00000042      -0.00000038      -0.00000207      -0.00000346      -0.00000125      -0.00000046
H       -0.00000075       1.62013360      16.81106544        0       1.00000000       0.00000094      -0.00000044      -0.00000237       0.00000271      -0.00000160       0.00000118
H        1.40307675       4.05033600       7.77136732        0       1.00000000      -0.00000189      -0.00000059      -0.00000164      -0.00000097       0.00000356      -0.00000063
H        2.80615527       1.62013477      16.81106492        0       1.00000000      -0.00000076      -0.00000105       0.00000046      -0.00000231      -0.00000041       0.00000090
H        4.20923237       4.05033660       7.77136668        0       1.00000000      -0.00000069       0.00000057      -0.00000041       0.00000077       0.00000114      -0.00000369
20
Lattice="5.612310241546866 0.0 0.0 0.0 4.860403243099165 0.0 0.0 0.0 24.582432123328676" Properties=species:S:1:pos:R:3:tags:I:1:masses:R:1:momenta:R:3:forces:R:3 KEmax=25.851991011651638 iter=224247 volume=670.5618179858607 ns_energy=-13.621460814361702 last_walked_iter_clone=224112 energy=-13.621460814368023 stress="0.025729322828772973 6.172103884957349e-09 -1.2410263121168155e-08 6.172103884957349e-09 0.025729357010127598 3.4282503451233463e-08 -1.2410263121168155e-08 3.4282503451233463e-08 0.013195002719979695" pbc="T T F"
H        1.40307756       0.81006721      10.00000000        3       1.00000000       0.00000000       0.00000000       0.00000000       0.00000000       0.00000000       0.00000000
H        4.20923268       0.81006721      10.00000000        3       1.00000000       0.00000000       0.00000000       0.00000000       0.00000000       0.00000000       0.00000000
H        0.00000000       3.24026883      10.00000000        3       1.00000000       0.00000000       0.00000000       0.00000000       0.00000000       0.00000000       0.00000000
H        2.80615512       3.24026883      10.00000000        3       1.00000000       0.00000000       0.00000000       0.00000000       0.00000000       0.00000000       0.00000000
H        0.00000000       1.62013441      12.29121606        2       1.00000000       0.00000000       0.00000000       0.00000000       0.00000000       0.00000000       0.00000000
H        2.80615512       1.62013441      12.29121606        2       1.00000000       0.00000000       0.00000000       0.00000000       0.00000000       0.00000000       0.00000000
H        1.40307756       4.05033604      12.29121606        2       1.00000000       0.00000000       0.00000000       0.00000000       0.00000000       0.00000000       0.00000000
H        4.20923268       4.05033604      12.29121606        2       1.00000000       0.00000000       0.00000000       0.00000000       0.00000000       0.00000000       0.00000000
H        0.00000000       0.00000000      14.58243212        1       1.00000000       0.00000000       0.00000000       0.00000000       0.00000000       0.00000000       0.00000000
H        2.80615512       0.00000000      14.58243212        1       1.00000000       0.00000000       0.00000000       0.00000000       0.00000000       0.00000000       0.00000000
H        1.40307756       2.43020162      14.58243212        1       1.00000000       0.00000000       0.00000000       0.00000000       0.00000000       0.00000000       0.00000000
H        4.20923268       2.43020162      14.58243212        1       1.00000000       0.00000000       0.00000000       0.00000000       0.00000000       0.00000000       0.00000000
H        1.40307704       4.05033578      16.81106499        0       1.00000000      -0.00000063      -0.00000073       0.00000111      -0.00000347       0.00000191       0.00000156
H       -0.00000135       1.62013407       7.77136615        0       1.00000000       0.00000016      -0.00000129      -0.00000048       0.00000303      -0.00000244      -0.00000096
H        4.20923216       4.05033489      16.81106578        0       1.00000000       0.00000116      -0.00000033      -0.00000194       0.00000380      -0.00000268      -0.00000226
H        2.80615487       1.62013506       7.77136754        0       1.00000000      -0.00000078      -0.00000015      -0.00000054      -0.00000346      -0.00000125      -0.00000046
H        5.61230994       1.62013266      16.81106478        0       1.00000000       0.00000062       0.00000115      -0.00000045       0.00000271      -0.00000160       0.00000118
H        1.40307665       4.05033655       7.77136676        0       1.00000000       0.00000077       0.00000110      -0.00000154      -0.00000097       0.00000356      -0.00000063
H        2.80615566       1.62013429      16.81106424        0       1.00000000       0.00000140      -0.00000062       0.00000033      -0.00000231      -0.00000041       0.00000090
H        4.20923201       4.05033602       7.77136721        0       1.00000000      -0.00000106       0.00000105       0.00000112       0.00000077       0.00000114      -0.00000369
20
Lattice="5.612310241546866 0.0 0.0 0.0 4.860403243099165 0.0 0.0 0.0 24.582432123328676" Properties=species:S:1:pos:R:3:tags:I:1:masses:R:1:momenta:R:3:forces:R:3 KEmax=25.851991011651638 iter=224247 volume=670.5618179858607 ns_energy=-13.621460814361729 last_walked_iter_clone=223452 energy=-13.621460814368023 stress="0.025729322828772973 6.172103884957349e-09 -1.2410263121168155e-08 6.172103884957349e-09 0.025729357010127598 3.4282503451233463e-08 -1.2410263121168155e-08 3.4282503451233463e-08 0.013195002719979695" pbc="T T F"
H        1.40307756       0.81006721      10.00000000        3       1.00000000       0.00000000       0.00000000       0.00000000       0.00000000       0.00000000       0.00000000
H        4.20923268       0.81006721      10.00000000        3       1.00000000       0.00000000       0.00000000       0.00000000       0.00000000       0.00000000       0.00000000
H        0.00000000       3.24026883      10.00000000        3       1.00000000       0.00000000       0.00000000       0.00000000       0.00000000       0.00000000       0.00000000
H        2.80615512       3.24026883      10.00000000        3       1.00000000       0.00000000       0.00000000       0.00000000       0.00000000       0.00000000       0.00000000
H        0.00000000       1.62013441      12.29121606        2       1.00000000       0.00000000       0.00000000       0.00000000       0.00000000       0.00000000       0.00000000
H        2.80615512       1.62013441      12.29121606        2       1.00000000       0.00000000       0.00000000       0.00000000       0.00000000       0.00000000       0.00000000
H        1.40307756       4.05033604      12.29121606        2       1.00000000       0.00000000       0.00000000       0.00000000       0.00000000       0.00000000       0.00000000
H        4.20923268       4.05033604      12.29121606        2       1.00000000       0.00000000       0.00000000       0.00000000       0.00000000       0.00000000       0.00000000
H        0.00000000       0.00000000      14.58243212        1       1.00000000       0.00000000       0.00000000       0.00000000       0.00000000       0.00000000       0.00000000
H        2.80615512       0.00000000      14.58243212        1       1.00000000       0.00000000       0.00000000       0.00000000       0.00000000       0.00000000       0.00000000
H        1.40307756       2.43020162      14.58243212        1       1.00000000       0.00000000       0.00000000       0.00000000       0.00000000       0.00000000       0.00000000
H        4.20923268       2.43020162      14.58243212        1       1.00000000       0.00000000       0.00000000       0.00000000       0.00000000       0.00000000       0.00000000
H        1.40307778       4.05033508      16.81106533        0       1.00000000       0.00000132      -0.00000083      -0.00000032      -0.00000347       0.00000191       0.00000156
H        0.00000075       1.62013457       7.77136763        0       1.00000000      -0.00000136      -0.00000004      -0.00000160       0.00000303      -0.00000244      -0.00000096
H        4.20923300       4.05033695      16.81106472        0       1.00000000      -0.00000134       0.00000018       0.00000150       0.00000380      -0.00000268      -0.00000226
H        2.80615524       1.62013414       7.77136656        0       1.00000000      -0.00000053       0.00000084      -0.00000129      -0.00000346      -0.00000125      -0.00000046
H       -0.00000057       1.62013465      16.81106512        0       1.00000000       0.00000021      -0.00000014      -0.00000151       0.00000271      -0.00000160       0.00000118
H        1.40307819       4.05033612       7.77136660        0       1.00000000      -0.00000202      -0.00000026       0.00000119      -0.00000097       0.00000356      -0.00000063
H        2.80615426       1.62013407      16.81106578        0       1.00000000       0.00000099      -0.00000096      -0.00000131      -0.00000231      -0.00000041       0.00000090
H        4.20923432       4.05033571       7.77136725        0       1.00000000      -0.00000079      -0.00000017      -0.00000013       0.00000077       0.00000114      -0.00000369
20
Lattice="5.612310241546866 0.0 0.0 0.0 4.860403243099165 0.0 0.0 0.0 24.582432123328676" Properties=species:S:1:pos:R:3:tags:I:1:masses:R:1:momenta:R:3:forces:R:3 KEmax=25.851991011651638 iter=224247 volume=670.5618179858607 ns_energy=-13.621460814361704 last_walked_iter_clone=223709 energy=-13.621460814368023 stress="0.025729322828772973 6.172103884957349e-09 -1.2410263121168155e-08 6.172103884957349e-09 0.025729357010127598 3.4282503451233463e-08 -1.2410263121168155e-08 3.4282503451233463e-08 0.013195002719979695" pbc="T T F"
H        1.40307756       0.81006721      10.00000000        3       1.00000000       0.00000000       0.00000000       0.00000000       0.00000000       0.00000000       0.00000000
H        4.20923268       0.81006721      10.00000000        3       1.00000000       0.00000000       0.00000000       0.00000000       0.00000000       0.00000000       0.00000000
H        0.00000000       3.24026883      10.00000000        3       1.00000000       0.00000000       0.00000000       0.00000000       0.00000000       0.00000000       0.00000000
H        2.80615512       3.24026883      10.00000000        3       1.00000000       0.00000000       0.00000000       0.00000000       0.00000000       0.00000000       0.00000000
H        0.00000000       1.62013441      12.29121606        2       1.00000000       0.00000000       0.00000000       0.00000000       0.00000000       0.00000000       0.00000000
H        2.80615512       1.62013441      12.29121606        2       1.00000000       0.00000000       0.00000000       0.00000000       0.00000000       0.00000000       0.00000000
H        1.40307756       4.05033604      12.29121606        2       1.00000000       0.00000000       0.00000000       0.00000000       0.00000000       0.00000000       0.00000000
H        4.20923268       4.05033604      12.29121606        2       1.00000000       0.00000000       0.00000000       0.00000000       0.00000000       0.00000000       0.00000000
H        0.00000000       0.00000000      14.58243212        1       1.00000000       0.00000000       0.00000000       0.00000000       0.00000000       0.00000000       0.00000000
H        2.80615512       0.00000000      14.58243212        1       1.00000000       0.00000000       0.00000000       0.00000000       0.00000000       0.00000000       0.00000000
H        1.40307756       2.43020162      14.58243212        1       1.00000000       0.00000000       0.00000000       0.00000000       0.00000000       0.00000000       0.00000000
H        4.20923268       2.43020162      14.58243212        1       1.00000000       0.00000000       0.00000000       0.00000000       0.00000000       0.00000000       0.00000000
H        1.40307791       4.05033623      16.81106597        0       1.00000000      -0.00000085      -0.00000026      -0.00000043      -0.00000347       0.00000191       0.00000156
H        5.61231039       1.62013546       7.77136690        0       1.00000000      -0.00000101      -0.00000201      -0.00000006       0.00000303      -0.00000244      -0.00000096
H        4.20923263       4.05033521      16.81106528        0       1.00000000       0.00000052      -0.00000020      -0.00000022       0.00000380      -0.00000268      -0.00000226
H        2.80615605       1.62013442       7.77136762        0       1.00000000      -0.00000007      -0.00000047       0.00000015      -0.00000346      -0.00000125      -0.00000046
H        5.61230965       1.62013469      16.81106453        0       1.00000000       0.00000093      -0.00000015       0.00000303       0.00000271      -0.00000160       0.00000118
H        1.40307682       4.05033664       7.77136655        0       1.00000000      -0.00000182       0.00000006       0.00000058      -0.00000097       0.00000356      -0.00000063
H        2.80615524       1.62013408      16.81106532        0       1.00000000       0.00000041      -0.00000024       0.00000171      -0.00000231      -0.00000041       0.00000090
H        4.20923202       4.05033716       7.77136713        0       1.00000000       0.00000137      -0.00000032       0.00000134       0.00000077       0.00000114      -0.00000369
20
Lattice="5.612310241546866 0.0 0.0 0.0 4.860403243099165 0.0 0.0 0.0 24.582432123328676" Properties=species:S:1:pos:R:3:tags:I:1:masses:R:1:momenta:R:3:forces:R:3 KEmax=25.851991011651638 iter=224247 volume=670.5618179858607 ns_energy=-13.621460814361955 last_walked_iter_clone=224235 energy=-13.621460814368023 stress="0.025729322828772973 6.172103884957349e-09 -1.2410263121168155e-08 6.172103884957349e-09 0.025729357010127598 3.4282503451233463e-08 -1.2410263121168155e-08 3.4282503451233463e-08 0.013195002719979695" pbc="T T F"
H        1.40307756       0.81006721      10.00000000        3       1.00000000       0.00000000       0.00000000       0.00000000       0.00000000       0.00000000       0.00000000
H        4.20923268       0.81006721      10.00000000        3       1.00000000       0.00000000       0.00000000       0.00000000       0.00000000       0.00000000       0.00000000
H        0.00000000       3.24026883      10.00000000        3       1.00000000       0.00000000       0.00000000       0.00000000       0.00000000       0.00000000       0.00000000
H        2.80615512       3.24026883      10.00000000        3       1.00000000       0.00000000       0.00000000       0.00000000       0.00000000       0.00000000       0.00000000
H        0.00000000       1.62013441      12.29121606        2       1.00000000       0.00000000       0.00000000       0.00000000       0.00000000       0.00000000       0.00000000
H        2.80615512       1.62013441      12.29121606        2       1.00000000       0.00000000       0.00000000       0.00000000       0.00000000       0.00000000       0.00000000
H        1.40307756       4.05033604      12.29121606        2       1.00000000       0.00000000       0.00000000       0.00000000       0.00000000       0.00000000       0.00000000
H        4.20923268       4.05033604      12.29121606        2       1.00000000       0.00000000       0.00000000       0.00000000       0.00000000       0.00000000       0.00000000
H        0.00000000       0.00000000      14.58243212        1       1.00000000       0.00000000       0.00000000       0.00000000       0.00000000       0.00000000       0.00000000
H        2.80615512       0.00000000      14.58243212        1       1.00000000       0.00000000       0.00000000       0.00000000       0.00000000       0.00000000       0.00000000
H        1.40307756       2.43020162      14.58243212        1       1.00000000       0.00000000       0.00000000       0.00000000       0.00000000       0.00000000       0.00000000
H        4.20923268       2.43020162      14.58243212        1       1.00000000       0.00000000       0.00000000       0.00000000       0.00000000       0.00000000       0.00000000
H        1.40307831       4.05033517      16.81106595        0       1.00000000       0.00000183       0.00000094       0.00000055      -0.00000347       0.00000191       0.00000156
H       -0.00000056       1.62013380       7.77136747        0       1.00000000       0.00000065      -0.00000028      -0.00000169       0.00000303      -0.00000244      -0.00000096
H        4.20923318       4.05033566      16.81106428        0       1.00000000       0.00000014      -0.00000108       0.00000053       0.00000380      -0.00000268      -0.00000226
H        2.80615443       1.62013530       7.77136800        0       1.00000000       0.00000002      -0.00000186      -0.00000065      -0.00000346      -0.00000125      -0.00000046
H        5.61231196       1.62013376      16.81106539        0       1.00000000       0.00000008       0.00000095      -0.00000116       0.00000271      -0.00000160       0.00000118
H        1.40307648       4.05033665       7.77136627        0       1.00000000      -0.00000046       0.00000063      -0.00000059      -0.00000097       0.00000356      -0.00000063
H        2.80615652       1.62013409      16.81106451        0       1.00000000      -0.00000038       0.00000054      -0.00000050      -0.00000231      -0.00000041       0.00000090
H        4.20923137       4.05033553       7.77136716        0       1.00000000      -0.00000078      -0.00000188      -0.00000017       0.00000077       0.00000114      -0.00000369
20
Lattice="5.612310241546866 0.0 0.0 0.0 4.860403243099165 0.0 0.0 0.0 24.582432123328676" Properties=species:S:1:pos:R:3:tags:I:1:masses:R:1:momenta:R:3:forces:R:3 KEmax=25.851991011651638 iter=224247 volume=670.5618179858607 ns_energy=-13.621460814361969 last_walked_iter_clone=224035 energy=-13.621460814368023 stress="0.025729322828772973 6.172103884957349e-09 -1.2410263121168155e-08 6.172103884957349e-09 0.025729357010127598 3.4282503451233463e-08 -1.2410263121168155e-08 3.4282503451233463e-08 0.013195002719979695" pbc="T T F"
H        1.40307756       0.81006721      10.00000000        3       1.00000000       0.00000000       0.00000000       0.00000000       0.00000000       0.00000000       0.00000000
H        4.20923268       0.81006721      10.00000000        3       1.00000000       0.00000000       0.00000000       0.00000000       0.00000000       0.00000000       0.00000000
H        0.00000000       3.24026883      10.00000000        3       1.00000000       0.00000000       0.00000000       0.00000000       0.00000000       0.00000000       0.00000000
H        2.80615512       3.24026883      10.00000000        3       1.00000000       0.00000000       0.00000000       0.00000000       0.00000000       0.00000000       0.00000000
H        0.00000000       1.62013441      12.29121606        2       1.00000000       0.00000000       0.00000000       0.00000000       0.00000000       0.00000000       0.00000000
H        2.80615512       1.62013441      12.29121606        2       1.00000000       0.00000000       0.00000000       0.00000000       0.00000000       0.00000000       0.00000000
H        1.40307756       4.05033604      12.29121606        2       1.00000000       0.00000000       0.00000000       0.00000000       0.00000000       0.00000000       0.00000000
H        4.20923268       4.05033604      12.29121606        2       1.00000000       0.00000000       0.00000000       0.00000000       0.00000000       0.00000000       0.00000000
H        0.00000000       0.00000000      14.58243212        1       1.00000000       0.00000000       0.00000000       0.00000000       0.00000000       0.00000000       0.00000000
H        2.80615512       0.00000000      14.58243212        1       1.00000000       0.00000000       0.00000000       0.00000000       0.00000000       0.00000000       0.00000000
H        1.40307756       2.43020162      14.58243212        1       1.00000000       0.00000000       0.00000000       0.00000000       0.00000000       0.00000000       0.00000000
H        4.20923268       2.43020162      14.58243212        1       1.00000000       0.00000000       0.00000000       0.00000000       0.00000000       0.00000000       0.00000000
H        1.40307853       4.05033718      16.81106509        0       1.00000000       0.00000151      -0.00000103      -0.00000021      -0.00000347       0.00000191       0.00000156
H        0.00000036       1.62013339       7.77136855        0       1.00000000       0.00000102      -0.00000020      -0.00000116       0.00000303      -0.00000244      -0.00000096
H        4.20923365       4.05033632      16.81106501        0       1.00000000      -0.00000040       0.00000084      -0.00000028       0.00000380      -0.00000268      -0.00000226
H        2.80615408       1.62013413       7.77136643        0       1.00000000      -0.00000164      -0.00000115       0.00000073      -0.00000346      -0.00000125      -0.00000046
H        5.61231210       1.62013429      16.81106454        0       1.00000000       0.00000068       0.00000061      -0.00000020       0.00000271      -0.00000160       0.00000118
H        1.40307721       4.05033517       7.77136723        0       1.00000000       0.00000066       0.00000053      -0.00000007      -0.00000097       0.00000356      -0.00000063
H        2.80615670       1.62013499      16.81106538        0       1.00000000      -0.00000029       0.00000039       0.00000070      -0.00000231      -0.00000041       0.00000090
H        4.20923312       4.05033617       7.77136722        0       1.00000000       0.00000088      -0.00000136      -0.00000142       0.00000077       0.00000114      -0.00000369
20
Lattice="5.612310241546866 0.0 0.0 0.0 4.860403243099165 0.0 0.0 0.0 24.582432123328676" Properties=species:S:1:pos:R:3:tags:I:1:masses:R:1:momenta:R:3:forces:R:3 KEmax=25.851991011651638 iter=224247 volume=670.5618179858607 ns_energy=-13.62146081436163 last_walked_iter_clone=224121 energy=-13.621460814368023 stress="0.025729322828772973 6.172103884957349e-09 -1.2410263121168155e-08 6.172103884957349e-09 0.025729357010127598 3.4282503451233463e-08 -1.2410263121168155e-08 3.4282503451233463e-08 0.013195002719979695" pbc="T T F"
H        1.40307756       0.81006721      10.00000000        3       1.00000000       0.00000000       0.00000000       0.00000000       0.00000000       0.00000000       0.00000000