18
Lattice="5.612310241546866 0.0 0.0 0.0 4.860403243099165 0.0 0.0 0.0 44.58243212332868" Properties=species:S:1:pos:R:3:tags:I:1:masses:R:1:momenta:R:3:forces:R:3 KEmax=23.26679191048647 iter=84181 volume=1216.1236359717223 ns_energy=-11.636651373850974 last_walked_iter_clone=83375 energy=-11.636651373910103 stress="0.022580663176091458 -2.6814949938649145e-08 -1.6191857252382933e-09 -2.6814949938649145e-08 0.022694970451226308 1.1553985788264394e-08 -1.6191857252382933e-09 1.1553985788264394e-08 0.012370117596582702" pbc="T T F"
H        1.40307756       0.81006721      20.00000000        3       1.00000000       0.00000000       0.00000000       0.00000000       0.00000000       0.00000000       0.00000000
H        4.20923268       0.81006721      20.00000000        3       1.00000000       0.00000000       0.00000000       0.00000000       0.00000000       0.00000000       0.00000000
H        0.00000000       3.24026883      20.00000000        3       1.00000000       0.00000000       0.00000000       0.00000000       0.00000000       0.00000000       0.00000000
H        2.80615512       3.24026883      20.00000000        3       1.00000000       0.00000000       0.00000000       0.00000000       0.00000000       0.00000000       0.00000000
H        0.00000000       1.62013441      22.29121606        2       1.00000000       0.00000000       0.00000000       0.00000000       0.00000000       0.00000000       0.00000000
H        2.80615512       1.62013441      22.29121606        2       1.00000000       0.00000000       0.00000000       0.00000000       0.00000000       0.00000000       0.00000000
H        1.40307756       4.05033604      22.29121606        2       1.00000000       0.00000000       0.00000000       0.00000000       0.00000000       0.00000000       0.00000000
H        4.20923268       4.05033604      22.29121606        2       1.00000000       0.00000000       0.00000000       0.00000000       0.00000000       0.00000000       0.00000000
H        0.00000000       0.00000000      24.58243212        1       1.00000000       0.00000000       0.00000000       0.00000000       0.00000000       0.00000000       0.00000000
H        2.80615512       0.00000000      24.58243212        1       1.00000000       0.00000000       0.00000000       0.00000000       0.00000000       0.00000000       0.00000000
H        1.40307756       2.43020162      24.58243212        1       1.00000000       0.00000000       0.00000000       0.00000000       0.00000000       0.00000000       0.00000000
H        4.20923268       2.43020162      24.58243212        1       1.00000000       0.00000000       0.00000000       0.00000000       0.00000000       0.00000000       0.00000000
H        1.40307830       2.43020177      17.77172926        0       1.00000000      -0.00000289      -0.00000026       0.00000174      -0.00000763      -0.00000387       0.00000732
H        4.20923510       2.43020213      17.77172768        0       1.00000000       0.00000085       0.00000011      -0.00000044       0.00000367      -0.00000295      -0.00000474
H        4.21916449       4.05018586      26.81112664        0       1.00000000       0.00000268      -0.00000194      -0.00000594       0.00000242       0.00001091      -0.00000338
H        5.61231243      -0.00000017      17.77172531        0       1.00000000       0.00000196       0.00000909       0.00000320      -0.00001086      -0.00000103       0.00000212
H        2.79622329       1.61998872      26.81112953        0       1.00000000       0.00000303       0.00000081      -0.00000379       0.00000002      -0.00000914      -0.00000279
H        2.80615983      -0.00000207      17.77172705        0       1.00000000      -0.00000356       0.00000278       0.00000331       0.00001707       0.00001132       0.00000394
18
Lattice="5.612310241546866 0.0 0.0 0.0 4.860403243099165 0.0 0.0 0.0 44.58243212332868" Properties=species:S:1:pos:R:3:tags:I:1:masses:R:1:momenta:R:3:forces:R:3 KEmax=23.26679191048647 iter=84181 volume=1216.1236359717223 ns_energy=-11.63665137384989 last_walked_iter_clone=83936 energy=-11.636651373910103 stress="0.022580663176091458 -2.6814949938649145e-08 -1.6191857252382933e-09 -2.6814949938649145e-08 0.022694970451226308 1.1553985788264394e-08 -1.6191857252382933e-09 1.1553985788264394e-08 0.012370117596582702" pbc="T T F"
H        1.40307756       0.81006721      20.00000000        3       1.00000000       0.00000000       0.00000000       0.00000000       0.00000000       0.00000000       0.00000000
H        4.20923268       0.81006721      20.00000000        3       1.00000000       0.00000000       0.00000000       0.00000000       0.00000000       0.00000000       0.00000000
H        0.00000000       3.24026883      20.00000000        3       1.00000000       0.00000000       0.00000000       0.00000000       0.00000000       0.00000000       0.00000000
H        2.80615512       3.24026883      20.00000000        3       1.00000000       0.00000000       0.00000000       0.00000000       0.00000000       0.00000000       0.00000000
H        0.00000000       1.62013441      22.29121606        2       1.00000000       0.00000000       0.00000000       0.00000000       0.00000000       0.00000000       0.00000000
H        2.80615512       1.62013441      22.29121606        2       1.00000000       0.00000000       0.00000000       0.00000000       0.00000000       0.00000000       0.00000000
H        1.40307756       4.05033604      22.29121606        2       1.00000000       0.00000000       0.00000000       0.00000000       0.00000000       0.00000000       0.00000000
H        4.20923268       4.05033604      22.29121606        2       1.00000000       0.00000000       0.00000000       0.00000000       0.00000000       0.00000000       0.00000000
H        0.00000000       0.00000000      24.58243212        1       1.00000000       0.00000000       0.00000000       0.00000000       0.00000000       0.00000000       0.00000000
H        2.80615512       0.00000000      24.58243212        1       1.00000000       0.00000000       0.00000000       0.00000000       0.00000000       0.00000000       0.00000000
H        1.40307756       2.43020162      24.58243212        1       1.00000000       0.00000000       0.00000000       0.00000000       0.00000000       0.00000000       0.00000000
H        4.20923268       2.43020162      24.58243212        1       1.00000000       0.00000000       0.00000000       0.00000000       0.00000000       0.00000000       0.00000000
H        1.40307896       2.43019681      17.77172786        0       1.00000000      -0.00000142       0.00000267       0.00000487      -0.00000763      -0.00000387       0.00000732
H        4.20923548       2.43019880      17.77172660        0       1.00000000      -0.00000316       0.00000029      -0.00000098       0.00000367      -0.00000295      -0.00000474
H        4.21916088       4.05018881      26.81113033        0       1.00000000       0.00000178      -0.00000222      -0.00000519       0.00000242       0.00001091      -0.00000338
H       -0.00000261      -0.00000320      17.77173008        0       1.00000000      -0.00000549      -0.00000148       0.00000101      -0.00001086      -0.00000103       0.00000212
H        2.79622150       1.61998759      26.81113059        0       1.00000000       0.00000020       0.00000402       0.00000115       0.00000002      -0.00000914      -0.00000279
H        2.80615667      -0.00000851      17.77172762        0       1.00000000       0.00000322      -0.00000278       0.00000139       0.00001707       0.00001132       0.00000394
18
Lattice="5.612310241546866 0.0 0.0 0.0 4.860403243099165 0.0 0.0 0.0 44.58243212332868" Properties=species:S:1:pos:R:3:tags:I:1:masses:R:1:momenta:R:3:forces:R:3 KEmax=23.26679191048647 iter=84181 volume=1216.1236359717223 ns_energy=-11.636651373848165 last_walked_iter_clone=84054 energy=-11.636651373910103 stress="0.022580663176091458 -2.6814949938649145e-08 -1.6191857252382933e-09 -2.6814949938649145e-08 0.022694970451226308 1.1553985788264394e-08 -1.6191857252382933e-09 1.1553985788264394e-08 0.012370117596582702" pbc="T T F"
H        1.40307756       0.81006721      20.00000000        3       1.00000000       0.00000000       0.00000000       0.00000000       0.00000000       0.00000000       0.00000000
H        4.20923268       0.81006721      20.00000000        3       1.00000000       0.00000000       0.00000000       0.00000000       0.00000000       0.00000000       0.00000000
H        0.00000000       3.24026883      20.00000000        3       1.00000000       0.00000000       0.00000000       0.00000000       0.00000000       0.00000000       0.00000000
H        2.80615512       3.24026883      20.00000000        3       1.00000000       0.00000000       0.00000000       0.00000000       0.00000000       0.00000000       0.00000000
H        0.00000000       1.62013441      22.29121606        2       1.00000000       0.00000000       0.00000000       0.00000000       0.00000000       0.00000000       0.00000000
H        2.80615512       1.62013441      22.29121606        2       1.00000000       0.00000000       0.00000000       0.00000000       0.00000000       0.00000000       0.00000000
H        1.40307756       4.05033604      22.29121606        2       1.00000000       0.00000000       0.00000000       0.00000000       0.00000000       0.00000000       0.00000000
H        4.20923268       4.05033604      22.29121606        2       1.00000000       0.00000000       0.00000000       0.00000000       0.00000000       0.00000000       0.00000000
H        0.00000000       0.00000000      24.58243212        1       1.00000000       0.00000000       0.00000000       0.00000000       0.00000000       0.00000000       0.00000000
H        2.80615512       0.00000000      24.58243212        1       1.00000000       0.00000000       0.00000000       0.00000000       0.00000000       0.00000000       0.00000000
H        1.40307756       2.43020162      24.58243212        1       1.00000000       0.00000000       0.00000000       0.00000000       0.00000000       0.00000000       0.00000000
H        4.20923268       2.43020162      24.58243212        1       1.00000000       0.00000000       0.00000000       0.00000000       0.00000000       0.00000000       0.00000000
H        1.40308047       2.43020293      17.77172884        0       1.00000000       0.00000349      -0.00000086      -0.00000109      -0.00000763      -0.00000387       0.00000732
H        4.20923653       2.43020311      17.77173050        0       1.00000000       0.00000433      -0.00000680       0.00000116       0.00000367      -0.00000295      -0.00000474
H        4.21916284       4.05018980      26.81113137        0       1.00000000       0.00000501      -0.00000471      -0.00000050       0.00000242       0.00001091      -0.00000338
H        5.61230923       0.00000010      17.77172812        0       1.00000000       0.00000038      -0.00000451      -0.00000358      -0.00001086      -0.00000103       0.00000212
H        2.79622154       1.61998993      26.81112973        0       1.00000000      -0.00000201       0.00000019      -0.00000257       0.00000002      -0.00000914      -0.00000279
H        2.80615956       0.00000214      17.77173106        0       1.00000000       0.00000098      -0.00000223      -0.00000118       0.00001707       0.00001132       0.00000394
18
Lattice="5.612310241546866 0.0 0.0 0.0 4.860403243099165 0.0 0.0 0.0 44.58243212332868" Properties=species:S:1:pos:R:3:tags:I:1:masses:R:1:momenta:R:3:forces:R:3 KEmax=23.26679191048647 iter=84181 volume=1216.1236359717223 ns_energy=-11.636651373847918 last_walked_iter_clone=84155 energy=-11.636651373910103 stress="0.022580663176091458 -2.6814949938649145e-08 -1.6191857252382933e-09 -2.6814949938649145e-08 0.022694970451226308 1.1553985788264394e-08 -1.6191857252382933e-09 1.1553985788264394e-08 0.012370117596582702" pbc="T T F"
H        1.40307756       0.81006721      20.00000000        3       1.00000000       0.00000000       0.00000000       0.00000000       0.00000000       0.00000000       0.00000000
H        4.20923268       0.81006721      20.00000000        3       1.00000000       0.00000000       0.00000000       0.00000000       0.00000000       0.00000000       0.00000000
H        0.00000000       3.24026883      20.00000000        3       1.00000000       0.00000000       0.00000000       0.00000000       0.00000000       0.00000000       0.00000000
H        2.80615512       3.24026883      20.00000000        3       1.00000000       0.00000000       0.00000000       0.00000000       0.00000000       0.00000000       0.00000000
H        0.00000000       1.62013441      22.29121606        2       1.00000000       0.00000000       0.00000000       0.00000000       0.00000000       0.00000000       0.00000000
H        2.80615512       1.62013441      22.29121606        2       1.00000000       0.00000000       0.00000000       0.00000000       0.00000000       0.00000000       0.00000000
H        1.40307756       4.05033604      22.29121606        2       1.00000000       0.00000000       0.00000000       0.00000000       0.00000000       0.00000000       0.00000000
H        4.20923268       4.05033604      22.29121606        2       1.00000000       0.00000000       0.00000000       0.00000000       0.00000000       0.00000000       0.00000000
H        0.00000000       0.00000000      24.58243212        1       1.00000000       0.00000000       0.00000000       0.00000000       0.00000000       0.00000000       0.00000000
H        2.80615512       0.00000000      24.58243212        1       1.00000000       0.00000000       0.00000000       0.00000000       0.00000000       0.00000000       0.00000000
H        1.40307756       2.43020162      24.58243212        1       1.00000000       0.00000000       0.00000000       0.00000000       0.00000000       0.00000000       0.00000000
H        4.20923268       2.43020162      24.58243212        1       1.00000000       0.00000000       0.00000000       0.00000000       0.00000000       0.00000000       0.00000000
H        1.40307845       2.43020411      17.77172804        0       1.00000000      -0.00000026      -0.00000016       0.00000008      -0.00000763      -0.00000387       0.00000732
H        4.20923431       2.43020558      17.77172667        0       1.00000000      -0.00000583      -0.00000299       0.00000043       0.00000367      -0.00000295      -0.00000474
H        4.21916429       4.05018787      26.81113439        0       1.00000000      -0.00000201       0.00000429      -0.00000743       0.00000242       0.00001091      -0.00000338
H        5.61231005       4.86040607      17.77172654        0       1.00000000      -0.00000890       0.00000393      -0.00000122      -0.00001086      -0.00000103       0.00000212
H        2.79622006       1.61998961      26.81112990        0       1.00000000      -0.00000047      -0.00000530      -0.00000048       0.00000002      -0.00000914      -0.00000279
H        2.80615408       0.00000275      17.77172555        0       1.00000000      -0.00000162      -0.00000334      -0.00000066       0.00001707       0.00001132       0.00000394
18
Lattice="5.612310241546866 0.0 0.0 0.0 4.860403243099165 0.0 0.0 0.0 44.58243212332868" Properties=species:S:1:pos:R:3:tags:I:1:masses:R:1:momenta:R:3:forces:R:3 KEmax=23.26679191048647 iter=84181 volume=1216.1236359717223 ns_energy=-11.636651373849352 last_walked_iter_clone=84146 energy=-11.636651373910103 stress="0.022580663176091458 -2.6814949938649145e-08 -1.6191857252382933e-09 -2.6814949938649145e-08 0.022694970451226308 1.1553985788264394e-08 -1.6191857252382933e-09 1.1553985788264394e-08 0.012370117596582702" pbc="T T F"
H        1.40307756       0.81006721      20.00000000        3       1.00000000       0.00000000       0.00000000       0.00000000       0.00000000       0.00000000       0.00000000
H        4.20923268       0.81006721      20.00000000        3       1.00000000       0.00000000       0.00000000       0.00000000       0.00000000       0.00000000       0.00000000
H        0.00000000       3.24026883      20.00000000        3       1.00000000       0.00000000       0.00000000       0.00000000       0.00000000       0.00000000       0.00000000
H        2.80615512       3.24026883      20.00000000        3       1.00000000       0.00000000       0.00000000       0.00000000       0.00000000       0.00000000       0.00000000
H        0.00000000       1.62013441      22.29121606        2       1.00000000       0.00000000       0.00000000       0.00000000       0.00000000       0.00000000       0.00000000
H        2.80615512       1.62013441      22.29121606        2       1.00000000       0.00000000       0.00000000       0.00000000       0.00000000       0.00000000       0.00000000
H        1.40307756       4.05033604      22.29121606        2       1.00000000       0.00000000       0.00000000       0.00000000       0.00000000       0.00000000       0.00000000
H        4.20923268       4.05033604      22.29121606        2       1.00000000       0.00000000       0.00000000       0.00000000       0.00000000       0.00000000       0.00000000
H        0.00000000       0.00000000      24.58243212        1       1.00000000       0.00000000       0.00000000       0.00000000       0.00000000       0.00000000       0.00000000
H        2.80615512       0.00000000      24.58243212        1       1.00000000       0.00000000       0.00000000       0.00000000       0.00000000       0.00000000       0.00000000
H        1.40307756       2.43020162      24.58243212        1       1.00000000       0.00000000       0.00000000       0.00000000       0.00000000       0.00000000       0.00000000
H        4.20923268       2.43020162      24.58243212        1       1.00000000       0.00000000       0.00000000       0.00000000       0.00000000       0.00000000       0.00000000
H        1.40307488       2.43019971      17.77172875        0       1.00000000      -0.00000050      -0.00000688       0.00000359      -0.00000763      -0.00000387       0.00000732
H        4.20922840       2.43019945      17.77172813        0       1.00000000       0.00000118       0.00000244      -0.00000550       0.00000367      -0.00000295      -0.00000474
H        4.21916447       4.05018645      26.81113128        0       1.00000000       0.00000437      -0.00000364      -0.00000408       0.00000242       0.00001091      -0.00000338
H        5.61230507      -0.00000151      17.77172493        0       1.00000000      -0.00000182      -0.00000349      -0.00000244      -0.00001086      -0.00000103       0.00000212
H        2.79622547       1.61998279      26.81113076        0       1.00000000       0.00000238      -0.00000245      -0.00000198       0.00000002      -0.00000914      -0.00000279
H        2.80615468      -0.00000169      17.77172942        0       1.00000000       0.00000390       0.00000105       0.00000359       0.00001707       0.00001132       0.00000394
18
Lattice="5.612310241546866 0.0 0.0 0.0 4.860403243099165 0.0 0.0 0.0 44.58243212332868" Properties=species:S:1:pos:R:3:tags:I:1:masses:R:1:momenta:R:3:forces:R:3 KEmax=23.26679191048647 iter=84181 volume=1216.1236359717223 ns_energy=-11.636651373857822 last_walked_iter_clone=84038 energy=-11.636651373910103 stress="0.022580663176091458 -2.6814949938649145e-08 -1.6191857252382933e-09 -2.6814949938649145e-08 0.022694970451226308 1.1553985788264394e-08 -1.6191857252382933e-09 1.1553985788264394e-08 0.012370117596582702" pbc="T T F"
H        1.40307756       0.81006721      20.00000000        3       1.00000000       0.00000000       0.00000000       0.00000000       0.00000000       0.00000000       0.00000000
H        4.20923268       0.81006721      20.00000000        3       1.00000000       0.00000000       0.00000000       0.00000000       0.00000000       0.00000000       0.00000000
H        0.00000000       3.24026883      20.00000000        3       1.00000000       0.00000000       0.00000000       0.00000000       0.00000000       0.00000000       0.00000000
H        2.80615512       3.24026883      20.00000000        3       1.00000000       0.00000000       0.00000000       0.00000000       0.00000000       0.00000000       0.00000000
H        0.00000000       1.62013441      22.29121606        2       1.00000000       0.00000000       0.00000000       0.00000000       0.00000000       0.00000000       0.00000000
H        2.80615512       1.62013441      22.29121606        2       1.00000000       0.00000000       0.00000000       0.00000000       0.00000000       0.00000000       0.00000000
H        1.40307756       4.05033604      22.29121606        2       1.00000000       0.00000000       0.00000000       0.00000000       0.00000000       0.00000000       0.00000000
H        4.20923268       4.05033604      22.29121606        2       1.00000000       0.00000000       0.00000000       0.00000000       0.00000000       0.00000000       0.00000000
H        0.00000000       0.00000000      24.58243212        1       1.00000000       0.00000000       0.00000000       0.00000000       0.00000000       0.00000000       0.00000000
H        2.80615512       0.00000000      24.58243212        1       1.00000000       0.00000000       0.00000000       0.00000000       0.00000000       0.00000000       0.00000000
H        1.40307756       2.43020162      24.58243212        1       1.00000000       0.00000000       0.00000000       0.00000000       0.00000000       0.00000000       0.00000000
H        4.20923268       2.43020162      24.58243212        1       1.00000000       0.00000000       0.00000000       0.00000000       0.00000000       0.00000000       0.00000000
H        1.40307751       2.43020355      17.77172861        0       1.00000000       0.00000055      -0.00000019       0.00000275      -0.00000763      -0.00000387       0.00000732
H        4.20923202       2.43020323      17.77172904        0       1.00000000      -0.00000037      -0.00000041      -0.00000129       0.00000367      -0.00000295      -0.00000474
H        4.21916900       4.05018798      26.81113446        0       1.00000000      -0.00000166      -0.00000994      -0.00000120       0.00000242       0.00001091      -0.00000338
H        5.61230914       4.86040608      17.77172505        0       1.00000000      -0.00000031       0.00000319      -0.00000128      -0.00001086      -0.00000103       0.00000212
H        2.79622868       1.61998448      26.81113068        0       1.00000000       0.00000116       0.00000652      -0.00000007       0.00000002      -0.00000914      -0.00000279
H        2.80615839       0.00000130      17.77172544        0       1.00000000      -0.00000262       0.00000013      -0.00000385       0.00001707       0.00001132       0.00000394
18
Lattice="5.612310241546866 0.0 0.0 0.0 4.860403243099165 0.0 0.0 0.0 44.58243212332868" Properties=species:S:1:pos:R:3:tags:I:1:masses:R:1:momenta:R:3:forces:R:3 KEmax=23.26679191048647 iter=84181 volume=1216.1236359717223 ns_energy=-11.636651373849242 last_walked_iter_clone=84128 energy=-11.636651373910103 stress="0.022580663176091458 -2.6814949938649145e-08 -1.6191857252382933e-09 -2.6814949938649145e-08 0.022694970451226308 1.1553985788264394e-08 -1.6191857252382933e-09 1.1553985788264394e-08 0.012370117596582702" pbc="T T F"
H        1.40307756       0.81006721      20.00000000        3       1.00000000       0.00000000       0.00000000       0.00000000       0.00000000       0.00000000       0.00000000
H        4.20923268       0.81006721      20.00000000        3       1.00000000       0.00000000       0.00000000       0.00000000       0.00000000       0.00000000       0.00000000
H        0.00000000       3.24026883      20.00000000        3       1.00000000       0.00000000       0.00000000       0.00000000       0.00000000       0.00000000       0.00000000
H        2.80615512       3.24026883      20.00000000        3       1.00000000       0.00000000       0.00000000       0.00000000       0.00000000       0.00000000       0.00000000
H        0.00000000       1.62013441      22.29121606        2       1.00000000       0.00000000       0.00000000       0.00000000       0.00000000       0.00000000       0.00000000
H        2.80615512       1.62013441      22.29121606        2       1.00000000       0.00000000       0.00000000       0.00000000       0.00000000       0.00000000       0.00000000
H        1.40307756       4.05033604      22.29121606        2       1.00000000       0.00000000       0.00000000       0.00000000       0.00000000       0.00000000       0.00000000
H        4.20923268       4.05033604      22.29121606        2       1.00000000       0.00000000       0.00000000       0.00000000       0.00000000       0.00000000       0.00000000
H        0.00000000       0.00000000      24.58243212        1       1.00000000       0.00000000       0.00000000       0.00000000       0.00000000       0.00000000       0.00000000
H        2.80615512       0.00000000      24.58243212        1       1.00000000       0.00000000       0.00000000       0.00000000       0.00000000       0.00000000       0.00000000
H        1.40307756       2.43020162      24.58243212        1       1.00000000       0.00000000       0.00000000       0.00000000       0.00000000       0.00000000       0.00000000
H        4.20923268       2.43020162      24.58243212        1       1.00000000       0.00000000       0.00000000       0.00000000       0.00000000       0.00000000       0.00000000
H        1.40307776       2.43019841      17.77173248        0       1.00000000       0.00000221      -0.00000276      -0.00000026      -0.00000763      -0.00000387       0.00000732
H        4.20923457       2.43020015      17.77173290        0       1.00000000      -0.00000039      -0.00000092      -0.00000243       0.00000367      -0.00000295      -0.00000474
H        4.21916434       4.05018835      26.81113245        0       1.00000000      -0.00000039       0.00000528       0.00000052       0.00000242       0.00001091      -0.00000338
H        5.61231218       0.00000002      17.77172782        0       1.00000000       0.00000583      -0.00000051       0.00000311      -0.00001086      -0.00000103       0.00000212
H        2.79622651       1.61998964      26.81112726        0       1.00000000       0.00000076      -0.00000076       0.00000143       0.00000002      -0.00000914      -0.00000279
H        2.80615567      -0.00000192      17.77172939        0       1.00000000      -0.00000193      -0.00000046       0.00000363       0.00001707       0.00001132       0.00000394
18
Lattice="5.612310241546866 0.0 0.0 0.0 4.860403243099165 0.0 0.0 0.0 44.58243212332868" Properties=species:S:1:pos:R:3:tags:I:1:masses:R:1:momenta:R:3:forces:R:3 KEmax=23.26679191048647 iter=84181 volume=1216.1236359717223 ns_energy=-11.636651373847553 last_walked_iter_clone=84082 energy=-11.636651373910103 stress="0.022580663176091458 -2.6814949938649145e-08 -1.6191857252382933e-09 -2.6814949938649145e-08 0.022694970451226308 1.1553985788264394e-08 -1.6191857252382933e-09 1.1553985788264394e-08 0.012370117596582702" pbc="T T F"
H        1.40307756       0.81006721      20.00000000        3       1.00000000       0.00000000       0.00000000       0.00000000       0.00000000       0.00000000       0.00000000
H        4.20923268       0.81006721      20.00000000        3       1.00000000       0.00000000       0.00000000       0.00000000       0.00000000       0.00000000       0.00000000
H        0.00000000       3.24026883      20.00000000        3       1.00000000       0.00000000       0.00000000       0.00000000       0.00000000       0.00000000       0.00000000
H        2.80615512       3.24026883      20.00000000        3       1.00000000       0.00000000       0.00000000       0.00000000       0.00000000       0.00000000       0.00000000
H        0.00000000       1.62013441      22.29121606        2       1.00000000       0.00000000       0.00000000       0.00000000       0.00000000       0.00000000       0.00000000
H        2.80615512       1.62013441      22.29121606        2       1.00000000       0.00000000       0.00000000       0.00000000       0.00000000       0.00000000       0.00000000
H        1.40307756       4.05033604      22.29121606        2       1.00000000       0.00000000       0.00000000       0.00000000       0.00000000       0.00000000       0.00000000
H        4.20923268       4.05033604      22.29121606        2       1.00000000       0.00000000       0.00000000       0.00000000       0.00000000       0.00000000       0.00000000
H        0.00000000       0.00000000      24.58243212        1       1.00000000       0.00000000       0.00000000       0.00000000       0.00000000       0.00000000       0.00000000
H        2.80615512       0.00000000      24.58243212        1       1.00000000       0.00000000       0.00000000       0.00000000       0.00000000       0.00000000       0.00000000
H        1.40307756       2.43020162      24.58243212        1       1.00000000       0.00000000       0.00000000       0.00000000       0.00000000       0.00000000       0.00000000
H        4.20923268       2.43020162      24.58243212        1       1.00000000       0.00000000       0.00000000       0.00000000       0.00000000       0.00000000       0.00000000
H        1.40307975       2.43020714      17.77172725        0       1.00000000      -0.00000295      -0.00000106      -0.00000148      -0.00000763      -0.00000387       0.00000732
H        4.20923505       2.43020696      17.77172601        0       1.00000000      -0.00000051      -0.00000492      -0.00000183       0.00000367      -0.00000295      -0.00000474
H        4.21916519       4.05018838      26.81113096        0       1.00000000       0.00000074      -0.00000052       0.00000200       0.00000242       0.00001091      -0.00000338