18
Lattice="5.612310241546866 0.0 0.0 0.0 4.860403243099165 0.0 0.0 0.0 44.58243212332868" Properties=species:S:1:pos:R:3:tags:I:1:masses:R:1:momenta:R:3:forces:R:3 KEmax=23.26679191048647 iter=114239 volume=1216.1236359717223 ns_energy=-11.636651374029912 last_walked_iter_clone=114239 energy=-11.636648430431633 stress="0.02258052422333922 -9.130767454771795e-09 -1.5039417019653822e-08 -9.130767454771795e-09 0.022694814630853672 -1.7372636750572373e-10 -1.5039417019653822e-08 -1.7372636750572373e-10 0.012369954274472137" pbc="T T F"
H        1.40307756       0.81006721      20.00000000        3       1.00000000       0.00000000       0.00000000       0.00000000       0.00000000       0.00000000       0.00000000
H        4.20923268       0.81006721      20.00000000        3       1.00000000       0.00000000       0.00000000       0.00000000       0.00000000       0.00000000       0.00000000
H        0.00000000       3.24026883      20.00000000        3       1.00000000       0.00000000       0.00000000       0.00000000       0.00000000       0.00000000       0.00000000
H        2.80615512       3.24026883      20.00000000        3       1.00000000       0.00000000       0.00000000       0.00000000       0.00000000       0.00000000       0.00000000
H        0.00000000       1.62013441      22.29121606        2       1.00000000       0.00000000       0.00000000       0.00000000       0.00000000       0.00000000       0.00000000
H        2.80615512       1.62013441      22.29121606        2       1.00000000       0.00000000       0.00000000       0.00000000       0.00000000       0.00000000       0.00000000
H        1.40307756       4.05033604      22.29121606        2       1.00000000       0.00000000       0.00000000       0.00000000       0.00000000       0.00000000       0.00000000
H        4.20923268       4.05033604      22.29121606        2       1.00000000       0.00000000       0.00000000       0.00000000       0.00000000       0.00000000       0.00000000
H        0.00000000       0.00000000      24.58243212        1       1.00000000       0.00000000       0.00000000       0.00000000       0.00000000       0.00000000       0.00000000
H        2.80615512       0.00000000      24.58243212        1       1.00000000       0.00000000       0.00000000       0.00000000       0.00000000       0.00000000       0.00000000
H        1.40307756       2.43020162      24.58243212        1       1.00000000       0.00000000       0.00000000       0.00000000       0.00000000       0.00000000       0.00000000
H        4.20923268       2.43020162      24.58243212        1       1.00000000       0.00000000       0.00000000       0.00000000       0.00000000       0.00000000       0.00000000
H        1.40307758       2.43020157      17.77172723        0       1.00000000       0.00000009       0.00000025       0.00000009      -0.00029444       0.00283320      -0.00000072
H        4.20923260       2.43020159      17.77172636        0       1.00000000       0.00000052      -0.00000001      -0.00000023       0.00029337       0.00285076      -0.00000475
H        4.21916273       4.05018952      26.81112987        0       1.00000000      -0.00000115      -0.00000052      -0.00000200       0.00000105       0.00000190      -0.00000028
H        5.61230988      -0.00000032      17.77172763        0       1.00000000      -0.00000010       0.00000018       0.00000022       0.00113508      -0.00286716       0.00000174
H        2.79622252       1.61998745      26.81113104        0       1.00000000       0.00000125       0.00000123       0.00000050      -0.00000009      -0.00000247       0.00000423
H        2.80615545       0.00000125      17.77172736        0       1.00000000       0.00000072      -0.00000063       0.00000016      -0.00113471      -0.00281696       0.00000427
18
Lattice="5.612310241546866 0.0 0.0 0.0 4.860403243099165 0.0 0.0 0.0 44.58243212332868" Properties=species:S:1:pos:R:3:tags:I:1:masses:R:1:momenta:R:3:forces:R:3 KEmax=23.26679191048647 iter=114239 volume=1216.1236359717223 ns_energy=-11.636651374033818 last_walked_iter_clone=113125 energy=-11.636648430431633 stress="0.02258052422333922 -9.130767454771795e-09 -1.5039417019653822e-08 -9.130767454771795e-09 0.022694814630853672 -1.7372636750572373e-10 -1.5039417019653822e-08 -1.7372636750572373e-10 0.012369954274472137" pbc="T T F"
H        1.40307756       0.81006721      20.00000000        3       1.00000000       0.00000000       0.00000000       0.00000000       0.00000000       0.00000000       0.00000000
H        4.20923268       0.81006721      20.00000000        3       1.00000000       0.00000000       0.00000000       0.00000000       0.00000000       0.00000000       0.00000000
H        0.00000000       3.24026883      20.00000000        3       1.00000000       0.00000000       0.00000000       0.00000000       0.00000000       0.00000000       0.00000000
H        2.80615512       3.24026883      20.00000000        3       1.00000000       0.00000000       0.00000000       0.00000000       0.00000000       0.00000000       0.00000000
H        0.00000000       1.62013441      22.29121606        2       1.00000000       0.00000000       0.00000000       0.00000000       0.00000000       0.00000000       0.00000000
H        2.80615512       1.62013441      22.29121606        2       1.00000000       0.00000000       0.00000000       0.00000000       0.00000000       0.00000000       0.00000000
H        1.40307756       4.05033604      22.29121606        2       1.00000000       0.00000000       0.00000000       0.00000000       0.00000000       0.00000000       0.00000000
H        4.20923268       4.05033604      22.29121606        2       1.00000000       0.00000000       0.00000000       0.00000000       0.00000000       0.00000000       0.00000000
H        0.00000000       0.00000000      24.58243212        1       1.00000000       0.00000000       0.00000000       0.00000000       0.00000000       0.00000000       0.00000000
H        2.80615512       0.00000000      24.58243212        1       1.00000000       0.00000000       0.00000000       0.00000000       0.00000000       0.00000000       0.00000000
H        1.40307756       2.43020162      24.58243212        1       1.00000000       0.00000000       0.00000000       0.00000000       0.00000000       0.00000000       0.00000000
H        4.20923268       2.43020162      24.58243212        1       1.00000000       0.00000000       0.00000000       0.00000000       0.00000000       0.00000000       0.00000000
H        1.40307852       2.43020113      17.77172688        0       1.00000000       0.00000041      -0.00000093      -0.00000118      -0.00029444       0.00283320      -0.00000072
H        4.20923308       2.43020171      17.77172721        0       1.00000000       0.00000094      -0.00000129      -0.00000084       0.00029337       0.00285076      -0.00000475
H        4.21916459       4.05018969      26.81113011        0       1.00000000      -0.00000009       0.00000054      -0.00000023       0.00000105       0.00000190      -0.00000028
H        5.61231043      -0.00000044      17.77172722        0       1.00000000      -0.00000057       0.00000047      -0.00000078       0.00113508      -0.00286716       0.00000174
H        2.79622361       1.61998849      26.81113037        0       1.00000000      -0.00000091      -0.00000074      -0.00000063      -0.00000009      -0.00000247       0.00000423
H        2.80615562       0.00000002      17.77172726        0       1.00000000      -0.00000022      -0.00000086       0.00000018      -0.00113471      -0.00281696       0.00000427
18
Lattice="5.612310241546866 0.0 0.0 0.0 4.860403243099165 0.0 0.0 0.0 44.58243212332868" Properties=species:S:1:pos:R:3:tags:I:1:masses:R:1:momenta:R:3:forces:R:3 KEmax=23.26679191048647 iter=114239 volume=1216.1236359717223 ns_energy=-11.636651374033814 last_walked_iter_clone=112992 energy=-11.636648430431633 stress="0.02258052422333922 -9.130767454771795e-09 -1.5039417019653822e-08 -9.130767454771795e-09 0.022694814630853672 -1.7372636750572373e-10 -1.5039417019653822e-08 -1.7372636750572373e-10 0.012369954274472137" pbc="T T F"
H        1.40307756       0.81006721      20.00000000        3       1.00000000       0.00000000       0.00000000       0.00000000       0.00000000       0.00000000       0.00000000
H        4.20923268       0.81006721      20.00000000        3       1.00000000       0.00000000       0.00000000       0.00000000       0.00000000       0.00000000       0.00000000
H        0.00000000       3.24026883      20.00000000        3       1.00000000       0.00000000       0.00000000       0.00000000       0.00000000       0.00000000       0.00000000
H        2.80615512       3.24026883      20.00000000        3       1.00000000       0.00000000       0.00000000       0.00000000       0.00000000       0.00000000       0.00000000
H        0.00000000       1.62013441      22.29121606        2       1.00000000       0.00000000       0.00000000       0.00000000       0.00000000       0.00000000       0.00000000
H        2.80615512       1.62013441      22.29121606        2       1.00000000       0.00000000       0.00000000       0.00000000       0.00000000       0.00000000       0.00000000
H        1.40307756       4.05033604      22.29121606        2       1.00000000       0.00000000       0.00000000       0.00000000       0.00000000       0.00000000       0.00000000
H        4.20923268       4.05033604      22.29121606        2       1.00000000       0.00000000       0.00000000       0.00000000       0.00000000       0.00000000       0.00000000
H        0.00000000       0.00000000      24.58243212        1       1.00000000       0.00000000       0.00000000       0.00000000       0.00000000       0.00000000       0.00000000
H        2.80615512       0.00000000      24.58243212        1       1.00000000       0.00000000       0.00000000       0.00000000       0.00000000       0.00000000       0.00000000
H        1.40307756       2.43020162      24.58243212        1       1.00000000       0.00000000       0.00000000       0.00000000       0.00000000       0.00000000       0.00000000
H        4.20923268       2.43020162      24.58243212        1       1.00000000       0.00000000       0.00000000       0.00000000       0.00000000       0.00000000       0.00000000
H        1.40307791       2.43020210      17.77172656        0       1.00000000       0.00000000       0.00000001      -0.00000147      -0.00029444       0.00283320      -0.00000072
H        4.20923326       2.43020182      17.77172725        0       1.00000000      -0.00000086      -0.00000067      -0.00000044       0.00029337       0.00285076      -0.00000475
H        4.21916268       4.05018842      26.81113052        0       1.00000000       0.00000057      -0.00000110      -0.00000089       0.00000105       0.00000190      -0.00000028
H        5.61231038       4.86040362      17.77172686        0       1.00000000       0.00000134      -0.00000081       0.00000030       0.00113508      -0.00286716       0.00000174
H        2.79622398       1.61998656      26.81113072        0       1.00000000       0.00000007       0.00000021      -0.00000142      -0.00000009      -0.00000247       0.00000423
H        2.80615535       0.00000064      17.77172746        0       1.00000000      -0.00000021      -0.00000032      -0.00000037      -0.00113471      -0.00281696       0.00000427
18
Lattice="5.612310241546866 0.0 0.0 0.0 4.860403243099165 0.0 0.0 0.0 44.58243212332868" Properties=species:S:1:pos:R:3:tags:I:1:masses:R:1:momenta:R:3:forces:R:3 KEmax=23.26679191048647 iter=114239 volume=1216.1236359717223 ns_energy=-11.636651374033795 last_walked_iter_clone=112589 energy=-11.636648430431633 stress="0.02258052422333922 -9.130767454771795e-09 -1.5039417019653822e-08 -9.130767454771795e-09 0.022694814630853672 -1.7372636750572373e-10 -1.5039417019653822e-08 -1.7372636750572373e-10 0.012369954274472137" pbc="T T F"
H        1.40307756       0.81006721      20.00000000        3       1.00000000       0.00000000       0.00000000       0.00000000       0.00000000       0.00000000       0.00000000
H        4.20923268       0.81006721      20.00000000        3       1.00000000       0.00000000       0.00000000       0.00000000       0.00000000       0.00000000       0.00000000
H        0.00000000       3.24026883      20.00000000        3       1.00000000       0.00000000       0.00000000       0.00000000       0.00000000       0.00000000       0.00000000
H        2.80615512       3.24026883      20.00000000        3       1.00000000       0.00000000       0.00000000       0.00000000       0.00000000       0.00000000       0.00000000
H        0.00000000       1.62013441      22.29121606        2       1.00000000       0.00000000       0.00000000       0.00000000       0.00000000       0.00000000       0.00000000
H        2.80615512       1.62013441      22.29121606        2       1.00000000       0.00000000       0.00000000       0.00000000       0.00000000       0.00000000       0.00000000
H        1.40307756       4.05033604      22.29121606        2       1.00000000       0.00000000       0.00000000       0.00000000       0.00000000       0.00000000       0.00000000
H        4.20923268       4.05033604      22.29121606        2       1.00000000       0.00000000       0.00000000       0.00000000       0.00000000       0.00000000       0.00000000
H        0.00000000       0.00000000      24.58243212        1       1.00000000       0.00000000       0.00000000       0.00000000       0.00000000       0.00000000       0.00000000
H        2.80615512       0.00000000      24.58243212        1       1.00000000       0.00000000       0.00000000       0.00000000       0.00000000       0.00000000       0.00000000
H        1.40307756       2.43020162      24.58243212        1       1.00000000       0.00000000       0.00000000       0.00000000       0.00000000       0.00000000       0.00000000
H        4.20923268       2.43020162      24.58243212        1       1.00000000       0.00000000       0.00000000       0.00000000       0.00000000       0.00000000       0.00000000
H        1.40307698       2.43020190      17.77172765        0       1.00000000      -0.00000132      -0.00000014       0.00000034      -0.00029444       0.00283320      -0.00000072
H        4.20923236       2.43020196      17.77172693        0       1.00000000       0.00000012       0.00000045      -0.00000048       0.00029337       0.00285076      -0.00000475
H        4.21916476       4.05018959      26.81113093        0       1.00000000      -0.00000046       0.00000148       0.00000073       0.00000105       0.00000190      -0.00000028
H       -0.00000049       0.00000035      17.77172661        0       1.00000000       0.00000007       0.00000023       0.00000098       0.00113508      -0.00286716       0.00000174
H        2.79622429       1.61998808      26.81113038        0       1.00000000      -0.00000116      -0.00000056      -0.00000063      -0.00000009      -0.00000247       0.00000423
H        2.80615470      -0.00000005      17.77172719        0       1.00000000       0.00000089      -0.00000136       0.00000044      -0.00113471      -0.00281696       0.00000427
18
Lattice="5.612310241546866 0.0 0.0 0.0 4.860403243099165 0.0 0.0 0.0 44.58243212332868" Properties=species:S:1:pos:R:3:tags:I:1:masses:R:1:momenta:R:3:forces:R:3 KEmax=23.26679191048647 iter=114239 volume=1216.1236359717223 ns_energy=-11.636651374033804 last_walked_iter_clone=112454 energy=-11.636648430431633 stress="0.02258052422333922 -9.130767454771795e-09 -1.5039417019653822e-08 -9.130767454771795e-09 0.022694814630853672 -1.7372636750572373e-10 -1.5039417019653822e-08 -1.7372636750572373e-10 0.012369954274472137" pbc="T T F"
H        1.40307756       0.81006721      20.00000000        3       1.00000000       0.00000000       0.00000000       0.00000000       0.00000000       0.00000000       0.00000000
H        4.20923268       0.81006721      20.00000000        3       1.00000000       0.00000000       0.00000000       0.00000000       0.00000000       0.00000000       0.00000000
H        0.00000000       3.24026883      20.00000000        3       1.00000000       0.00000000       0.00000000       0.00000000       0.00000000       0.00000000       0.00000000
H        2.80615512       3.24026883      20.00000000        3       1.00000000       0.00000000       0.00000000       0.00000000       0.00000000       0.00000000       0.00000000
H        0.00000000       1.62013441      22.29121606        2       1.00000000       0.00000000       0.00000000       0.00000000       0.00000000       0.00000000       0.00000000
H        2.80615512       1.62013441      22.29121606        2       1.00000000       0.00000000       0.00000000       0.00000000       0.00000000       0.00000000       0.00000000
H        1.40307756       4.05033604      22.29121606        2       1.00000000       0.00000000       0.00000000       0.00000000       0.00000000       0.00000000       0.00000000
H        4.20923268       4.05033604      22.29121606        2       1.00000000       0.00000000       0.00000000       0.00000000       0.00000000       0.00000000       0.00000000
H        0.00000000       0.00000000      24.58243212        1       1.00000000       0.00000000       0.00000000       0.00000000       0.00000000       0.00000000       0.00000000
H        2.80615512       0.00000000      24.58243212        1       1.00000000       0.00000000       0.00000000       0.00000000       0.00000000       0.00000000       0.00000000
H        1.40307756       2.43020162      24.58243212        1       1.00000000       0.00000000       0.00000000       0.00000000       0.00000000       0.00000000       0.00000000
H        4.20923268       2.43020162      24.58243212        1       1.00000000       0.00000000       0.00000000       0.00000000       0.00000000       0.00000000       0.00000000
H        1.40307729       2.43020205      17.77172696        0       1.00000000      -0.00000119       0.00000093      -0.00000046      -0.00029444       0.00283320      -0.00000072
H        4.20923267       2.43020177      17.77172716        0       1.00000000      -0.00000070      -0.00000110       0.00000047       0.00029337       0.00285076      -0.00000475
H        4.21916411       4.05018829      26.81113083        0       1.00000000       0.00000175      -0.00000025      -0.00000006       0.00000105       0.00000190      -0.00000028
H       -0.00000007      -0.00000011      17.77172699        0       1.00000000       0.00000016       0.00000063      -0.00000127       0.00113508      -0.00286716       0.00000174
H        2.79622382       1.61998692      26.81113093        0       1.00000000      -0.00000060       0.00000157      -0.00000056      -0.00000009      -0.00000247       0.00000423
H        2.80615498       0.00000025      17.77172751        0       1.00000000       0.00000028      -0.00000010       0.00000046      -0.00113471      -0.00281696       0.00000427
18
Lattice="5.612310241546866 0.0 0.0 0.0 4.860403243099165 0.0 0.0 0.0 44.58243212332868" Properties=species:S:1:pos:R:3:tags:I:1:masses:R:1:momenta:R:3:forces:R:3 KEmax=23.26679191048647 iter=114239 volume=1216.1236359717223 ns_energy=-11.636651374034308 last_walked_iter_clone=112768 energy=-11.636648430431633 stress="0.02258052422333922 -9.130767454771795e-09 -1.5039417019653822e-08 -9.130767454771795e-09 0.022694814630853672 -1.7372636750572373e-10 -1.5039417019653822e-08 -1.7372636750572373e-10 0.012369954274472137" pbc="T T F"
H        1.40307756       0.81006721      20.00000000        3       1.00000000       0.00000000       0.00000000       0.00000000       0.00000000       0.00000000       0.00000000
H        4.20923268       0.81006721      20.00000000        3       1.00000000       0.00000000       0.00000000       0.00000000       0.00000000       0.00000000       0.00000000
H        0.00000000       3.24026883      20.00000000        3       1.00000000       0.00000000       0.00000000       0.00000000       0.00000000       0.00000000       0.00000000
H        2.80615512       3.24026883      20.00000000        3       1.00000000       0.00000000       0.00000000       0.00000000       0.00000000       0.00000000       0.00000000
H        0.00000000       1.62013441      22.29121606        2       1.00000000       0.00000000       0.00000000       0.00000000       0.00000000       0.00000000       0.00000000
H        2.80615512       1.62013441      22.29121606        2       1.00000000       0.00000000       0.00000000       0.00000000       0.00000000       0.00000000       0.00000000
H        1.40307756       4.05033604      22.29121606        2       1.00000000       0.00000000       0.00000000       0.00000000       0.00000000       0.00000000       0.00000000
H        4.20923268       4.05033604      22.29121606        2       1.00000000       0.00000000       0.00000000       0.00000000       0.00000000       0.00000000       0.00000000
H        0.00000000       0.00000000      24.58243212        1       1.00000000       0.00000000       0.00000000       0.00000000       0.00000000       0.00000000       0.00000000
H        2.80615512       0.00000000      24.58243212        1       1.00000000       0.00000000       0.00000000       0.00000000       0.00000000       0.00000000       0.00000000
H        1.40307756       2.43020162      24.58243212        1       1.00000000       0.00000000       0.00000000       0.00000000       0.00000000       0.00000000       0.00000000
H        4.20923268       2.43020162      24.58243212        1       1.00000000       0.00000000       0.00000000       0.00000000       0.00000000       0.00000000       0.00000000
H        1.40307715       2.43020185      17.77172692        0       1.00000000      -0.00000038       0.00000009       0.00000044      -0.00029444       0.00283320      -0.00000072
H        4.20923186       2.43020175      17.77172752        0       1.00000000       0.00000126      -0.00000121       0.00000133       0.00029337       0.00285076      -0.00000475
H        4.21916388       4.05019024      26.81113088        0       1.00000000       0.00000136      -0.00000045       0.00000098       0.00000105       0.00000190      -0.00000028
H       -0.00000053       0.00000023      17.77172676        0       1.00000000      -0.00000035      -0.00000037       0.00000003       0.00113508      -0.00286716       0.00000174
H        2.79622425       1.61998879      26.81113106        0       1.00000000      -0.00000050      -0.00000017       0.00000086      -0.00000009      -0.00000247       0.00000423
H        2.80615438      -0.00000017      17.77172734        0       1.00000000       0.00000050      -0.00000024      -0.00000030      -0.00113471      -0.00281696       0.00000427
18
Lattice="5.612310241546866 0.0 0.0 0.0 4.860403243099165 0.0 0.0 0.0 44.58243212332868" Properties=species:S:1:pos:R:3:tags:I:1:masses:R:1:momenta:R:3:forces:R:3 KEmax=23.26679191048647 iter=114239 volume=1216.1236359717223 ns_energy=-11.636651374033981 last_walked_iter_clone=113761 energy=-11.636648430431633 stress="0.02258052422333922 -9.130767454771795e-09 -1.5039417019653822e-08 -9.130767454771795e-09 0.022694814630853672 -1.7372636750572373e-10 -1.5039417019653822e-08 -1.7372636750572373e-10 0.012369954274472137" pbc="T T F"
H        1.40307756       0.81006721      20.00000000        3       1.00000000       0.00000000       0.00000000       0.00000000       0.00000000       0.00000000       0.00000000
H        4.20923268       0.81006721      20.00000000        3       1.00000000       0.00000000       0.00000000       0.00000000       0.00000000       0.00000000       0.00000000
H        0.00000000       3.24026883      20.00000000        3       1.00000000       0.00000000       0.00000000       0.00000000       0.00000000       0.00000000       0.00000000
H        2.80615512       3.24026883      20.00000000        3       1.00000000       0.00000000       0.00000000       0.00000000       0.00000000       0.00000000       0.00000000
H        0.00000000       1.62013441      22.29121606        2       1.00000000       0.00000000       0.00000000       0.00000000       0.00000000       0.00000000       0.00000000
H        2.80615512       1.62013441      22.29121606        2       1.00000000       0.00000000       0.00000000       0.00000000       0.00000000       0.00000000       0.00000000
H        1.40307756       4.05033604      22.29121606        2       1.00000000       0.00000000       0.00000000       0.00000000       0.00000000       0.00000000       0.00000000
H        4.20923268       4.05033604      22.29121606        2       1.00000000       0.00000000       0.00000000       0.00000000       0.00000000       0.00000000       0.00000000
H        0.00000000       0.00000000      24.58243212        1       1.00000000       0.00000000       0.00000000       0.00000000       0.00000000       0.00000000       0.00000000
H        2.80615512       0.00000000      24.58243212        1       1.00000000       0.00000000       0.00000000       0.00000000       0.00000000       0.00000000       0.00000000
H        1.40307756       2.43020162      24.58243212        1       1.00000000       0.00000000       0.00000000       0.00000000       0.00000000       0.00000000       0.00000000
H        4.20923268       2.43020162      24.58243212        1       1.00000000       0.00000000       0.00000000       0.00000000       0.00000000       0.00000000       0.00000000
H        1.40307745       2.43020238      17.77172708        0       1.00000000       0.00000012      -0.00000105      -0.00000022      -0.00029444       0.00283320      -0.00000072
H        4.20923284       2.43020183      17.77172735        0       1.00000000       0.00000134       0.00000060       0.00000041       0.00029337       0.00285076      -0.00000475
H        4.21916362       4.05019044      26.81113035        0       1.00000000      -0.00000052       0.00000049      -0.00000050       0.00000105       0.00000190      -0.00000028
H        5.61231019       4.86040337      17.77172675        0       1.00000000       0.00000019       0.00000095      -0.00000086       0.00113508      -0.00286716       0.00000174
H        2.79622477       1.61998803      26.81113053        0       1.00000000      -0.00000025      -0.00000075      -0.00000132      -0.00000009      -0.00000247       0.00000423
H        2.80615564       4.86040392      17.77172727        0       1.00000000      -0.00000019       0.00000042      -0.00000109      -0.00113471      -0.00281696       0.00000427
18
Lattice="5.612310241546866 0.0 0.0 0.0 4.860403243099165 0.0 0.0 0.0 44.58243212332868" Properties=species:S:1:pos:R:3:tags:I:1:masses:R:1:momenta:R:3:forces:R:3 KEmax=23.26679191048647 iter=114239 volume=1216.1236359717223 ns_energy=-11.636651374034104 last_walked_iter_clone=113748 energy=-11.636648430431633 stress="0.02258052422333922 -9.130767454771795e-09 -1.5039417019653822e-08 -9.130767454771795e-09 0.022694814630853672 -1.7372636750572373e-10 -1.5039417019653822e-08 -1.7372636750572373e-10 0.012369954274472137" pbc="T T F"
H        1.40307756       0.81006721      20.00000000        3       1.00000000       0.00000000       0.00000000       0.00000000       0.00000000       0.00000000       0.00000000
H        4.20923268       0.81006721      20.00000000        3       1.00000000       0.00000000       0.00000000       0.00000000       0.00000000       0.00000000       0.00000000
H        0.00000000       3.24026883      20.00000000        3       1.00000000       0.00000000       0.00000000       0.00000000       0.00000000       0.00000000       0.00000000
H        2.80615512       3.24026883      20.00000000        3       1.00000000       0.00000000       0.00000000       0.00000000       0.00000000       0.00000000       0.00000000
H        0.00000000       1.62013441      22.29121606        2       1.00000000       0.00000000       0.00000000       0.00000000       0.00000000       0.00000000       0.00000000
H        2.80615512       1.62013441      22.29121606        2       1.00000000       0.00000000       0.00000000       0.00000000       0.00000000       0.00000000       0.00000000
H        1.40307756       4.05033604      22.29121606        2       1.00000000       0.00000000       0.00000000       0.00000000       0.00000000       0.00000000       0.00000000
H        4.20923268       4.05033604      22.29121606        2       1.00000000       0.00000000       0.00000000       0.00000000       0.00000000       0.00000000       0.00000000
H        0.00000000       0.00000000      24.58243212        1       1.00000000       0.00000000       0.00000000       0.00000000       0.00000000       0.00000000       0.00000000
H        2.80615512       0.00000000      24.58243212        1       1.00000000       0.00000000       0.00000000       0.00000000       0.00000000       0.00000000       0.00000000
H        1.40307756       2.43020162      24.58243212        1       1.00000000       0.00000000       0.00000000       0.00000000       0.00000000       0.00000000       0.00000000
H        4.20923268       2.43020162      24.58243212        1       1.00000000       0.00000000       0.00000000       0.00000000       0.00000000       0.00000000       0.00000000
H        1.40307780       2.43020277      17.77172725        0       1.00000000      -0.00000161       0.00000075       0.00000093      -0.00029444       0.00283320      -0.00000072
H        4.20923325       2.43020301      17.77172696        0       1.00000000      -0.00000060       0.00000080       0.00000042       0.00029337       0.00285076      -0.00000475
H        4.21916380       4.05018886      26.81113069        0       1.00000000       0.00000108       0.00000037      -0.00000003       0.00000105       0.00000190      -0.00000028