18
Lattice="5.612310241546866 0.0 0.0 0.0 4.860403243099165 0.0 0.0 0.0 44.58243212332868" Properties=species:S:1:pos:R:3:tags:I:1:masses:R:1:momenta:R:3:forces:R:3 KEmax=23.26679191048647 iter=119999 volume=1216.1236359717223 ns_energy=-11.636651374034775 last_walked_iter_clone=119130 energy=-11.636635157345177 stress="0.022580242806795565 -1.580809873355233e-08 8.510049842775416e-09 -1.580809873355233e-08 0.0226940946194922 2.2444694628754623e-08 8.510049842775416e-09 2.2444694628754623e-08 0.012369944393588444" pbc="T T F"
H        1.40307756       0.81006721      20.00000000        3       1.00000000       0.00000000       0.00000000       0.00000000       0.00000000       0.00000000       0.00000000
H        4.20923268       0.81006721      20.00000000        3       1.00000000       0.00000000       0.00000000       0.00000000       0.00000000       0.00000000       0.00000000
H        0.00000000       3.24026883      20.00000000        3       1.00000000       0.00000000       0.00000000       0.00000000       0.00000000       0.00000000       0.00000000
H        2.80615512       3.24026883      20.00000000        3       1.00000000       0.00000000       0.00000000       0.00000000       0.00000000       0.00000000       0.00000000
H        0.00000000       1.62013441      22.29121606        2       1.00000000       0.00000000       0.00000000       0.00000000       0.00000000       0.00000000       0.00000000
H        2.80615512       1.62013441      22.29121606        2       1.00000000       0.00000000       0.00000000       0.00000000       0.00000000       0.00000000       0.00000000
H        1.40307756       4.05033604      22.29121606        2       1.00000000       0.00000000       0.00000000       0.00000000       0.00000000       0.00000000       0.00000000
H        4.20923268       4.05033604      22.29121606        2       1.00000000       0.00000000       0.00000000       0.00000000       0.00000000       0.00000000       0.00000000
H        0.00000000       0.00000000      24.58243212        1       1.00000000       0.00000000       0.00000000       0.00000000       0.00000000       0.00000000       0.00000000
H        2.80615512       0.00000000      24.58243212        1       1.00000000       0.00000000       0.00000000       0.00000000       0.00000000       0.00000000       0.00000000
H        1.40307756       2.43020162      24.58243212        1       1.00000000       0.00000000       0.00000000       0.00000000       0.00000000       0.00000000       0.00000000
H        4.20923268       2.43020162      24.58243212        1       1.00000000       0.00000000       0.00000000       0.00000000       0.00000000       0.00000000       0.00000000
H        1.40307821       2.43020124      17.77172732        0       1.00000000       0.00000015       0.00000077      -0.00000033      -0.00075396       0.00678366      -0.00000371
H        4.20923303       2.43020187      17.77172689        0       1.00000000      -0.00000046       0.00000071      -0.00000114       0.00075338       0.00683658       0.00000136
H        4.21916440       4.05018942      26.81113074        0       1.00000000       0.00000072       0.00000011      -0.00000039       0.00000093       0.00000532      -0.00000085
H       -0.00000001       4.86040268      17.77172761        0       1.00000000       0.00000086       0.00000131       0.00000063       0.00196583      -0.00679779      -0.00000225
H        2.79622443       1.61998790      26.81113124        0       1.00000000       0.00000018      -0.00000011      -0.00000049      -0.00000066      -0.00000402      -0.00000140
H        2.80615537       4.86040270      17.77172649        0       1.00000000      -0.00000005      -0.00000084      -0.00000027      -0.00196405      -0.00681824      -0.00000189
18
Lattice="5.612310241546866 0.0 0.0 0.0 4.860403243099165 0.0 0.0 0.0 44.58243212332868" Properties=species:S:1:pos:R:3:tags:I:1:masses:R:1:momenta:R:3:forces:R:3 KEmax=23.26679191048647 iter=119999 volume=1216.1236359717223 ns_energy=-11.63665137403512 last_walked_iter_clone=119872 energy=-11.636635157345177 stress="0.022580242806795565 -1.580809873355233e-08 8.510049842775416e-09 -1.580809873355233e-08 0.0226940946194922 2.2444694628754623e-08 8.510049842775416e-09 2.2444694628754623e-08 0.012369944393588444" pbc="T T F"
H        1.40307756       0.81006721      20.00000000        3       1.00000000       0.00000000       0.00000000       0.00000000       0.00000000       0.00000000       0.00000000
H        4.20923268       0.81006721      20.00000000        3       1.00000000       0.00000000       0.00000000       0.00000000       0.00000000       0.00000000       0.00000000
H        0.00000000       3.24026883      20.00000000        3       1.00000000       0.00000000       0.00000000       0.00000000       0.00000000       0.00000000       0.00000000
H        2.80615512       3.24026883      20.00000000        3       1.00000000       0.00000000       0.00000000       0.00000000       0.00000000       0.00000000       0.00000000
H        0.00000000       1.62013441      22.29121606        2       1.00000000       0.00000000       0.00000000       0.00000000       0.00000000       0.00000000       0.00000000
H        2.80615512       1.62013441      22.29121606        2       1.00000000       0.00000000       0.00000000       0.00000000       0.00000000       0.00000000       0.00000000
H        1.40307756       4.05033604      22.29121606        2       1.00000000       0.00000000       0.00000000       0.00000000       0.00000000       0.00000000       0.00000000
H        4.20923268       4.05033604      22.29121606        2       1.00000000       0.00000000       0.00000000       0.00000000       0.00000000       0.00000000       0.00000000
H        0.00000000       0.00000000      24.58243212        1       1.00000000       0.00000000       0.00000000       0.00000000       0.00000000       0.00000000       0.00000000
H        2.80615512       0.00000000      24.58243212        1       1.00000000       0.00000000       0.00000000       0.00000000       0.00000000       0.00000000       0.00000000
H        1.40307756       2.43020162      24.58243212        1       1.00000000       0.00000000       0.00000000       0.00000000       0.00000000       0.00000000       0.00000000
H        4.20923268       2.43020162      24.58243212        1       1.00000000       0.00000000       0.00000000       0.00000000       0.00000000       0.00000000       0.00000000
H        1.40307748       2.43020149      17.77172696        0       1.00000000       0.00000026      -0.00000052      -0.00000046      -0.00075396       0.00678366      -0.00000371
H        4.20923257       2.43020124      17.77172737        0       1.00000000       0.00000120       0.00000066      -0.00000070       0.00075338       0.00683658       0.00000136
H        4.21916434       4.05018960      26.81113077        0       1.00000000       0.00000072      -0.00000098      -0.00000037       0.00000093       0.00000532      -0.00000085
H       -0.00000005       4.86040270      17.77172715        0       1.00000000       0.00000007       0.00000165       0.00000054       0.00196583      -0.00679779      -0.00000225
H        2.79622342       1.61998774      26.81113109        0       1.00000000       0.00000058       0.00000096      -0.00000049      -0.00000066      -0.00000402      -0.00000140
H        2.80615493      -0.00000027      17.77172721        0       1.00000000       0.00000116      -0.00000012       0.00000032      -0.00196405      -0.00681824      -0.00000189
18
Lattice="5.612310241546866 0.0 0.0 0.0 4.860403243099165 0.0 0.0 0.0 44.58243212332868" Properties=species:S:1:pos:R:3:tags:I:1:masses:R:1:momenta:R:3:forces:R:3 KEmax=23.26679191048647 iter=119999 volume=1216.1236359717223 ns_energy=-11.636651374034898 last_walked_iter_clone=119119 energy=-11.636635157345177 stress="0.022580242806795565 -1.580809873355233e-08 8.510049842775416e-09 -1.580809873355233e-08 0.0226940946194922 2.2444694628754623e-08 8.510049842775416e-09 2.2444694628754623e-08 0.012369944393588444" pbc="T T F"
H        1.40307756       0.81006721      20.00000000        3       1.00000000       0.00000000       0.00000000       0.00000000       0.00000000       0.00000000       0.00000000
H        4.20923268       0.81006721      20.00000000        3       1.00000000       0.00000000       0.00000000       0.00000000       0.00000000       0.00000000       0.00000000
H        0.00000000       3.24026883      20.00000000        3       1.00000000       0.00000000       0.00000000       0.00000000       0.00000000       0.00000000       0.00000000
H        2.80615512       3.24026883      20.00000000        3       1.00000000       0.00000000       0.00000000       0.00000000       0.00000000       0.00000000       0.00000000
H        0.00000000       1.62013441      22.29121606        2       1.00000000       0.00000000       0.00000000       0.00000000       0.00000000       0.00000000       0.00000000
H        2.80615512       1.62013441      22.29121606        2       1.00000000       0.00000000       0.00000000       0.00000000       0.00000000       0.00000000       0.00000000
H        1.40307756       4.05033604      22.29121606        2       1.00000000       0.00000000       0.00000000       0.00000000       0.00000000       0.00000000       0.00000000
H        4.20923268       4.05033604      22.29121606        2       1.00000000       0.00000000       0.00000000       0.00000000       0.00000000       0.00000000       0.00000000
H        0.00000000       0.00000000      24.58243212        1       1.00000000       0.00000000       0.00000000       0.00000000       0.00000000       0.00000000       0.00000000
H        2.80615512       0.00000000      24.58243212        1       1.00000000       0.00000000       0.00000000       0.00000000       0.00000000       0.00000000       0.00000000
H        1.40307756       2.43020162      24.58243212        1       1.00000000       0.00000000       0.00000000       0.00000000       0.00000000       0.00000000       0.00000000
H        4.20923268       2.43020162      24.58243212        1       1.00000000       0.00000000       0.00000000       0.00000000       0.00000000       0.00000000       0.00000000
H        1.40307762       2.43020147      17.77172693        0       1.00000000      -0.00000092      -0.00000048       0.00000021      -0.00075396       0.00678366      -0.00000371
H        4.20923283       2.43020104      17.77172701        0       1.00000000      -0.00000068      -0.00000028       0.00000040       0.00075338       0.00683658       0.00000136
H        4.21916414       4.05018862      26.81113112        0       1.00000000       0.00000002       0.00000038       0.00000010       0.00000093       0.00000532      -0.00000085
H        0.00000028       4.86040319      17.77172692        0       1.00000000      -0.00000014       0.00000032       0.00000093       0.00196583      -0.00679779      -0.00000225
H        2.79622592       1.61998698      26.81113076        0       1.00000000      -0.00000047       0.00000142       0.00000044      -0.00000066      -0.00000402      -0.00000140
H        2.80615528      -0.00000013      17.77172727        0       1.00000000      -0.00000009      -0.00000146      -0.00000069      -0.00196405      -0.00681824      -0.00000189
18
Lattice="5.612310241546866 0.0 0.0 0.0 4.860403243099165 0.0 0.0 0.0 44.58243212332868" Properties=species:S:1:pos:R:3:tags:I:1:masses:R:1:momenta:R:3:forces:R:3 KEmax=23.26679191048647 iter=119999 volume=1216.1236359717223 ns_energy=-11.636651374034898 last_walked_iter_clone=115816 energy=-11.636635157345177 stress="0.022580242806795565 -1.580809873355233e-08 8.510049842775416e-09 -1.580809873355233e-08 0.0226940946194922 2.2444694628754623e-08 8.510049842775416e-09 2.2444694628754623e-08 0.012369944393588444" pbc="T T F"
H        1.40307756       0.81006721      20.00000000        3       1.00000000       0.00000000       0.00000000       0.00000000       0.00000000       0.00000000       0.00000000
H        4.20923268       0.81006721      20.00000000        3       1.00000000       0.00000000       0.00000000       0.00000000       0.00000000       0.00000000       0.00000000
H        0.00000000       3.24026883      20.00000000        3       1.00000000       0.00000000       0.00000000       0.00000000       0.00000000       0.00000000       0.00000000
H        2.80615512       3.24026883      20.00000000        3       1.00000000       0.00000000       0.00000000       0.00000000       0.00000000       0.00000000       0.00000000
H        0.00000000       1.62013441      22.29121606        2       1.00000000       0.00000000       0.00000000       0.00000000       0.00000000       0.00000000       0.00000000
H        2.80615512       1.62013441      22.29121606        2       1.00000000       0.00000000       0.00000000       0.00000000       0.00000000       0.00000000       0.00000000
H        1.40307756       4.05033604      22.29121606        2       1.00000000       0.00000000       0.00000000       0.00000000       0.00000000       0.00000000       0.00000000
H        4.20923268       4.05033604      22.29121606        2       1.00000000       0.00000000       0.00000000       0.00000000       0.00000000       0.00000000       0.00000000
H        0.00000000       0.00000000      24.58243212        1       1.00000000       0.00000000       0.00000000       0.00000000       0.00000000       0.00000000       0.00000000
H        2.80615512       0.00000000      24.58243212        1       1.00000000       0.00000000       0.00000000       0.00000000       0.00000000       0.00000000       0.00000000
H        1.40307756       2.43020162      24.58243212        1       1.00000000       0.00000000       0.00000000       0.00000000       0.00000000       0.00000000       0.00000000
H        4.20923268       2.43020162      24.58243212        1       1.00000000       0.00000000       0.00000000       0.00000000       0.00000000       0.00000000       0.00000000
H        1.40307770       2.43020132      17.77172696        0       1.00000000       0.00000038      -0.00000009       0.00000010      -0.00075396       0.00678366      -0.00000371
H        4.20923255       2.43020144      17.77172725        0       1.00000000      -0.00000087       0.00000047       0.00000050       0.00075338       0.00683658       0.00000136
H        4.21916391       4.05018908      26.81113102        0       1.00000000       0.00000062       0.00000017      -0.00000021       0.00000093       0.00000532      -0.00000085
H       -0.00000006      -0.00000034      17.77172717        0       1.00000000       0.00000061      -0.00000015      -0.00000069       0.00196583      -0.00679779      -0.00000225
H        2.79622260       1.61998697      26.81113129        0       1.00000000       0.00000025       0.00000042       0.00000037      -0.00000066      -0.00000402      -0.00000140
H        2.80615491      -0.00000019      17.77172662        0       1.00000000       0.00000196      -0.00000079       0.00000084      -0.00196405      -0.00681824      -0.00000189
18
Lattice="5.612310241546866 0.0 0.0 0.0 4.860403243099165 0.0 0.0 0.0 44.58243212332868" Properties=species:S:1:pos:R:3:tags:I:1:masses:R:1:momenta:R:3:forces:R:3 KEmax=23.26679191048647 iter=119999 volume=1216.1236359717223 ns_energy=-11.636651374034814 last_walked_iter_clone=118645 energy=-11.636635157345177 stress="0.022580242806795565 -1.580809873355233e-08 8.510049842775416e-09 -1.580809873355233e-08 0.0226940946194922 2.2444694628754623e-08 8.510049842775416e-09 2.2444694628754623e-08 0.012369944393588444" pbc="T T F"
H        1.40307756       0.81006721      20.00000000        3       1.00000000       0.00000000       0.00000000       0.00000000       0.00000000       0.00000000       0.00000000
H        4.20923268       0.81006721      20.00000000        3       1.00000000       0.00000000       0.00000000       0.00000000       0.00000000       0.00000000       0.00000000
H        0.00000000       3.24026883      20.00000000        3       1.00000000       0.00000000       0.00000000       0.00000000       0.00000000       0.00000000       0.00000000
H        2.80615512       3.24026883      20.00000000        3       1.00000000       0.00000000       0.00000000       0.00000000       0.00000000       0.00000000       0.00000000
H        0.00000000       1.62013441      22.29121606        2       1.00000000       0.00000000       0.00000000       0.00000000       0.00000000       0.00000000       0.00000000
H        2.80615512       1.62013441      22.29121606        2       1.00000000       0.00000000       0.00000000       0.00000000       0.00000000       0.00000000       0.00000000
H        1.40307756       4.05033604      22.29121606        2       1.00000000       0.00000000       0.00000000       0.00000000       0.00000000       0.00000000       0.00000000
H        4.20923268       4.05033604      22.29121606        2       1.00000000       0.00000000       0.00000000       0.00000000       0.00000000       0.00000000       0.00000000
H        0.00000000       0.00000000      24.58243212        1       1.00000000       0.00000000       0.00000000       0.00000000       0.00000000       0.00000000       0.00000000
H        2.80615512       0.00000000      24.58243212        1       1.00000000       0.00000000       0.00000000       0.00000000       0.00000000       0.00000000       0.00000000
H        1.40307756       2.43020162      24.58243212        1       1.00000000       0.00000000       0.00000000       0.00000000       0.00000000       0.00000000       0.00000000
H        4.20923268       2.43020162      24.58243212        1       1.00000000       0.00000000       0.00000000       0.00000000       0.00000000       0.00000000       0.00000000
H        1.40307667       2.43020219      17.77172702        0       1.00000000       0.00000022       0.00000111       0.00000001      -0.00075396       0.00678366      -0.00000371
H        4.20923178       2.43020243      17.77172726        0       1.00000000      -0.00000040      -0.00000039       0.00000053       0.00075338       0.00683658       0.00000136
H        4.21916352       4.05018909      26.81112994        0       1.00000000      -0.00000068      -0.00000057      -0.00000018       0.00000093       0.00000532      -0.00000085
H       -0.00000111       4.86040404      17.77172733        0       1.00000000      -0.00000101       0.00000102       0.00000054       0.00196583      -0.00679779      -0.00000225
H        2.79622378       1.61998850      26.81113060        0       1.00000000      -0.00000075      -0.00000056       0.00000079      -0.00000066      -0.00000402      -0.00000140
H        2.80615417       4.86040374      17.77172695        0       1.00000000       0.00000085      -0.00000006      -0.00000012      -0.00196405      -0.00681824      -0.00000189
18
Lattice="5.612310241546866 0.0 0.0 0.0 4.860403243099165 0.0 0.0 0.0 44.58243212332868" Properties=species:S:1:pos:R:3:tags:I:1:masses:R:1:momenta:R:3:forces:R:3 KEmax=23.26679191048647 iter=119999 volume=1216.1236359717223 ns_energy=-11.636651374034837 last_walked_iter_clone=119332 energy=-11.636635157345177 stress="0.022580242806795565 -1.580809873355233e-08 8.510049842775416e-09 -1.580809873355233e-08 0.0226940946194922 2.2444694628754623e-08 8.510049842775416e-09 2.2444694628754623e-08 0.012369944393588444" pbc="T T F"
H        1.40307756       0.81006721      20.00000000        3       1.00000000       0.00000000       0.00000000       0.00000000       0.00000000       0.00000000       0.00000000
H        4.20923268       0.81006721      20.00000000        3       1.00000000       0.00000000       0.00000000       0.00000000       0.00000000       0.00000000       0.00000000
H        0.00000000       3.24026883      20.00000000        3       1.00000000       0.00000000       0.00000000       0.00000000       0.00000000       0.00000000       0.00000000
H        2.80615512       3.24026883      20.00000000        3       1.00000000       0.00000000       0.00000000       0.00000000       0.00000000       0.00000000       0.00000000
H        0.00000000       1.62013441      22.29121606        2       1.00000000       0.00000000       0.00000000       0.00000000       0.00000000       0.00000000       0.00000000
H        2.80615512       1.62013441      22.29121606        2       1.00000000       0.00000000       0.00000000       0.00000000       0.00000000       0.00000000       0.00000000
H        1.40307756       4.05033604      22.29121606        2       1.00000000       0.00000000       0.00000000       0.00000000       0.00000000       0.00000000       0.00000000
H        4.20923268       4.05033604      22.29121606        2       1.00000000       0.00000000       0.00000000       0.00000000       0.00000000       0.00000000       0.00000000
H        0.00000000       0.00000000      24.58243212        1       1.00000000       0.00000000       0.00000000       0.00000000       0.00000000       0.00000000       0.00000000
H        2.80615512       0.00000000      24.58243212        1       1.00000000       0.00000000       0.00000000       0.00000000       0.00000000       0.00000000       0.00000000
H        1.40307756       2.43020162      24.58243212        1       1.00000000       0.00000000       0.00000000       0.00000000       0.00000000       0.00000000       0.00000000
H        4.20923268       2.43020162      24.58243212        1       1.00000000       0.00000000       0.00000000       0.00000000       0.00000000       0.00000000       0.00000000
H        1.40307728       2.43020136      17.77172708        0       1.00000000      -0.00000168       0.00000026      -0.00000123      -0.00075396       0.00678366      -0.00000371
H        4.20923197       2.43020142      17.77172741        0       1.00000000      -0.00000024       0.00000007       0.00000030       0.00075338       0.00683658       0.00000136
H        4.21916423       4.05018985      26.81113073        0       1.00000000      -0.00000012       0.00000080       0.00000031       0.00000093       0.00000532      -0.00000085
H       -0.00000054       4.86040297      17.77172656        0       1.00000000      -0.00000069      -0.00000075      -0.00000017       0.00196583      -0.00679779      -0.00000225
H        2.79622442       1.61998885      26.81113080        0       1.00000000      -0.00000015       0.00000051       0.00000091      -0.00000066      -0.00000402      -0.00000140
H        2.80615486      -0.00000013      17.77172733        0       1.00000000      -0.00000067       0.00000110       0.00000060      -0.00196405      -0.00681824      -0.00000189
18
Lattice="5.612310241546866 0.0 0.0 0.0 4.860403243099165 0.0 0.0 0.0 44.58243212332868" Properties=species:S:1:pos:R:3:tags:I:1:masses:R:1:momenta:R:3:forces:R:3 KEmax=23.26679191048647 iter=119999 volume=1216.1236359717223 ns_energy=-11.636651374035084 last_walked_iter_clone=118160 energy=-11.636635157345177 stress="0.022580242806795565 -1.580809873355233e-08 8.510049842775416e-09 -1.580809873355233e-08 0.0226940946194922 2.2444694628754623e-08 8.510049842775416e-09 2.2444694628754623e-08 0.012369944393588444" pbc="T T F"
H        1.40307756       0.81006721      20.00000000        3       1.00000000       0.00000000       0.00000000       0.00000000       0.00000000       0.00000000       0.00000000
H        4.20923268       0.81006721      20.00000000        3       1.00000000       0.00000000       0.00000000       0.00000000       0.00000000       0.00000000       0.00000000
H        0.00000000       3.24026883      20.00000000        3       1.00000000       0.00000000       0.00000000       0.00000000       0.00000000       0.00000000       0.00000000
H        2.80615512       3.24026883      20.00000000        3       1.00000000       0.00000000       0.00000000       0.00000000       0.00000000       0.00000000       0.00000000
H        0.00000000       1.62013441      22.29121606        2       1.00000000       0.00000000       0.00000000       0.00000000       0.00000000       0.00000000       0.00000000
H        2.80615512       1.62013441      22.29121606        2       1.00000000       0.00000000       0.00000000       0.00000000       0.00000000       0.00000000       0.00000000
H        1.40307756       4.05033604      22.29121606        2       1.00000000       0.00000000       0.00000000       0.00000000       0.00000000       0.00000000       0.00000000
H        4.20923268       4.05033604      22.29121606        2       1.00000000       0.00000000       0.00000000       0.00000000       0.00000000       0.00000000       0.00000000
H        0.00000000       0.00000000      24.58243212        1       1.00000000       0.00000000       0.00000000       0.00000000       0.00000000       0.00000000       0.00000000
H        2.80615512       0.00000000      24.58243212        1       1.00000000       0.00000000       0.00000000       0.00000000       0.00000000       0.00000000       0.00000000
H        1.40307756       2.43020162      24.58243212        1       1.00000000       0.00000000       0.00000000       0.00000000       0.00000000       0.00000000       0.00000000
H        4.20923268       2.43020162      24.58243212        1       1.00000000       0.00000000       0.00000000       0.00000000       0.00000000       0.00000000       0.00000000
H        1.40307723       2.43020186      17.77172698        0       1.00000000       0.00000031       0.00000092       0.00000062      -0.00075396       0.00678366      -0.00000371
H        4.20923207       2.43020127      17.77172706        0       1.00000000      -0.00000006       0.00000053       0.00000128       0.00075338       0.00683658       0.00000136
H        4.21916404       4.05018934      26.81113061        0       1.00000000      -0.00000091       0.00000002      -0.00000032       0.00000093       0.00000532      -0.00000085
H       -0.00000022      -0.00000019      17.77172753        0       1.00000000       0.00000096      -0.00000021      -0.00000040       0.00196583      -0.00679779      -0.00000225
H        2.79622439       1.61998762      26.81113085        0       1.00000000      -0.00000114       0.00000098      -0.00000077      -0.00000066      -0.00000402      -0.00000140
H        2.80615505      -0.00000017      17.77172756        0       1.00000000      -0.00000128      -0.00000070       0.00000012      -0.00196405      -0.00681824      -0.00000189
18
Lattice="5.612310241546866 0.0 0.0 0.0 4.860403243099165 0.0 0.0 0.0 44.58243212332868" Properties=species:S:1:pos:R:3:tags:I:1:masses:R:1:momenta:R:3:forces:R:3 KEmax=23.26679191048647 iter=119999 volume=1216.1236359717223 ns_energy=-11.636651374034825 last_walked_iter_clone=117688 energy=-11.636635157345177 stress="0.022580242806795565 -1.580809873355233e-08 8.510049842775416e-09 -1.580809873355233e-08 0.0226940946194922 2.2444694628754623e-08 8.510049842775416e-09 2.2444694628754623e-08 0.012369944393588444" pbc="T T F"
H        1.40307756       0.81006721      20.00000000        3       1.00000000       0.00000000       0.00000000       0.00000000       0.00000000       0.00000000       0.00000000
H        4.20923268       0.81006721      20.00000000        3       1.00000000       0.00000000       0.00000000       0.00000000       0.00000000       0.00000000       0.00000000
H        0.00000000       3.24026883      20.00000000        3       1.00000000       0.00000000       0.00000000       0.00000000       0.00000000       0.00000000       0.00000000
H        2.80615512       3.24026883      20.00000000        3       1.00000000       0.00000000       0.00000000       0.00000000       0.00000000       0.00000000       0.00000000
H        0.00000000       1.62013441      22.29121606        2       1.00000000       0.00000000       0.00000000       0.00000000       0.00000000       0.00000000       0.00000000
H        2.80615512       1.62013441      22.29121606        2       1.00000000       0.00000000       0.00000000       0.00000000       0.00000000       0.00000000       0.00000000
H        1.40307756       4.05033604      22.29121606        2       1.00000000       0.00000000       0.00000000       0.00000000       0.00000000       0.00000000       0.00000000
H        4.20923268       4.05033604      22.29121606        2       1.00000000       0.00000000       0.00000000       0.00000000       0.00000000       0.00000000       0.00000000
H        0.00000000       0.00000000      24.58243212        1       1.00000000       0.00000000       0.00000000       0.00000000       0.00000000       0.00000000       0.00000000
H        2.80615512       0.00000000      24.58243212        1       1.00000000       0.00000000       0.00000000       0.00000000       0.00000000       0.00000000       0.00000000
H        1.40307756       2.43020162      24.58243212        1       1.00000000       0.00000000       0.00000000       0.00000000       0.00000000       0.00000000       0.00000000
H        4.20923268       2.43020162      24.58243212        1       1.00000000       0.00000000       0.00000000       0.00000000       0.00000000       0.00000000       0.00000000
H        1.40307748       2.43020149      17.77172696        0       1.00000000      -0.00000112      -0.00000027      -0.00000003      -0.00075396       0.00678366      -0.00000371
H        4.20923257       2.43020124      17.77172737        0       1.00000000       0.00000101       0.00000039      -0.00000128       0.00075338       0.00683658       0.00000136
H        4.21916434       4.05018960      26.81113077        0       1.00000000      -0.00000072      -0.00000018       0.00000116       0.00000093       0.00000532      -0.00000085