18
Lattice="5.612310241546866 0.0 0.0 0.0 4.860403243099165 0.0 0.0 0.0 44.58243212332868" Properties=species:S:1:pos:R:3:tags:I:1:masses:R:1:momenta:R:3 KEmax=23.26679191048647 iter=99 volume=1216.1236359717223 ns_energy=13.08945054811039 last_walked_iter_clone=10 ns_P=0.0 config_n_global=99 ns_KE=21.356328895097946 pbc="T T F"
H        1.40307756       0.81006721      20.00000000        3       1.00000000       0.00000000       0.00000000       0.00000000
H        4.20923268       0.81006721      20.00000000        3       1.00000000       0.00000000       0.00000000       0.00000000
H        0.00000000       3.24026883      20.00000000        3       1.00000000       0.00000000       0.00000000       0.00000000
H        2.80615512       3.24026883      20.00000000        3       1.00000000       0.00000000       0.00000000       0.00000000
H        0.00000000       1.62013441      22.29121606        2       1.00000000       0.00000000       0.00000000       0.00000000
H        2.80615512       1.62013441      22.29121606        2       1.00000000       0.00000000       0.00000000       0.00000000
H        1.40307756       4.05033604      22.29121606        2       1.00000000       0.00000000       0.00000000       0.00000000
H        4.20923268       4.05033604      22.29121606        2       1.00000000       0.00000000       0.00000000       0.00000000
H        0.00000000       0.00000000      24.58243212        1       1.00000000       0.00000000       0.00000000       0.00000000
H        2.80615512       0.00000000      24.58243212        1       1.00000000       0.00000000       0.00000000       0.00000000
H        1.40307756       2.43020162      24.58243212        1       1.00000000       0.00000000       0.00000000       0.00000000
H        4.20923268       2.43020162      24.58243212        1       1.00000000       0.00000000       0.00000000       0.00000000
H        5.22591329       4.31539430       8.95095590        0       1.00000000       1.06961095      -1.32968071       2.34443137
H        5.19760673       2.95565299      11.27050773        0       1.00000000      -0.68556568       0.04853761       1.44888263
H        0.61649896       1.73776476      27.14996638        0       1.00000000      -3.65643036      -2.51583072      -0.12169479
H        3.42309307       4.76124482      15.15928015        0       1.00000000       0.72489414       1.30716073      -1.65736393
H        1.45685275       3.91992236      30.71434294        0       1.00000000       1.89347602      -1.51092048      -0.55398031
H        2.44988779       3.63395185      11.45180931        0       1.00000000      -0.44488288       0.59759058      -0.55480595
18
Lattice="5.612310241546866 0.0 0.0 0.0 4.860403243099165 0.0 0.0 0.0 44.58243212332868" Properties=species:S:1:pos:R:3:tags:I:1:masses:R:1:momenta:R:3 KEmax=23.26679191048647 iter=199 volume=1216.1236359717223 ns_energy=9.62788474995989 last_walked_iter_clone=145 ns_P=0.0 config_n_global=199 ns_KE=17.328653454025705 pbc="T T F"
H        1.40307756       0.81006721      20.00000000        3       1.00000000       0.00000000       0.00000000       0.00000000
H        4.20923268       0.81006721      20.00000000        3       1.00000000       0.00000000       0.00000000       0.00000000
H        0.00000000       3.24026883      20.00000000        3       1.00000000       0.00000000       0.00000000       0.00000000
H        2.80615512       3.24026883      20.00000000        3       1.00000000       0.00000000       0.00000000       0.00000000
H        0.00000000       1.62013441      22.29121606        2       1.00000000       0.00000000       0.00000000       0.00000000
H        2.80615512       1.62013441      22.29121606        2       1.00000000       0.00000000       0.00000000       0.00000000
H        1.40307756       4.05033604      22.29121606        2       1.00000000       0.00000000       0.00000000       0.00000000
H        4.20923268       4.05033604      22.29121606        2       1.00000000       0.00000000       0.00000000       0.00000000
H        0.00000000       0.00000000      24.58243212        1       1.00000000       0.00000000       0.00000000       0.00000000
H        2.80615512       0.00000000      24.58243212        1       1.00000000       0.00000000       0.00000000       0.00000000
H        1.40307756       2.43020162      24.58243212        1       1.00000000       0.00000000       0.00000000       0.00000000
H        4.20923268       2.43020162      24.58243212        1       1.00000000       0.00000000       0.00000000       0.00000000
H        2.30065498       1.65538516      13.73553452        0       1.00000000      -3.05072705       0.05880752      -0.66186982
H        1.30252213       0.12411333      10.04868348        0       1.00000000       0.89853439       0.63780698       1.98710083
H        1.40205101       4.14955939      31.66909157        0       1.00000000       1.77906129       1.19364084      -1.15951155
H        2.70926129       2.27754154      16.41829209        0       1.00000000       0.38368453       0.67944490      -0.23260104
H        0.77889946       3.04142553      38.52505494        0       1.00000000      -1.00398336       1.10189375      -2.27640714
H        5.35610533       1.95126282       6.00297581        0       1.00000000       0.96590375       1.97270305       0.95923596
18
Lattice="5.612310241546866 0.0 0.0 0.0 4.860403243099165 0.0 0.0 0.0 44.58243212332868" Properties=species:S:1:pos:R:3:tags:I:1:masses:R:1:momenta:R:3 KEmax=23.26679191048647 iter=299 volume=1216.1236359717223 ns_energy=7.0356719850402065 last_walked_iter_clone=244 ns_P=0.0 config_n_global=299 ns_KE=15.01777826929454 pbc="T T F"
H        1.40307756       0.81006721      20.00000000        3       1.00000000       0.00000000       0.00000000       0.00000000
H        4.20923268       0.81006721      20.00000000        3       1.00000000       0.00000000       0.00000000       0.00000000
H        0.00000000       3.24026883      20.00000000        3       1.00000000       0.00000000       0.00000000       0.00000000
H        2.80615512       3.24026883      20.00000000        3       1.00000000       0.00000000       0.00000000       0.00000000
H        0.00000000       1.62013441      22.29121606        2       1.00000000       0.00000000       0.00000000       0.00000000
H        2.80615512       1.62013441      22.29121606        2       1.00000000       0.00000000       0.00000000       0.00000000
H        1.40307756       4.05033604      22.29121606        2       1.00000000       0.00000000       0.00000000       0.00000000
H        4.20923268       4.05033604      22.29121606        2       1.00000000       0.00000000       0.00000000       0.00000000
H        0.00000000       0.00000000      24.58243212        1       1.00000000       0.00000000       0.00000000       0.00000000
H        2.80615512       0.00000000      24.58243212        1       1.00000000       0.00000000       0.00000000       0.00000000
H        1.40307756       2.43020162      24.58243212        1       1.00000000       0.00000000       0.00000000       0.00000000
H        4.20923268       2.43020162      24.58243212        1       1.00000000       0.00000000       0.00000000       0.00000000
H        1.19395213       3.47430492      12.87353656        0       1.00000000       1.87934680       0.07176437      -0.79637025
H        5.09821498       1.55940112       7.88745691        0       1.00000000      -1.54071820       1.12017473       0.28500550
H        4.99093801       3.99560322      44.26495160        0       1.00000000      -1.15587083       0.89753768       2.19623458
H        1.57709403       0.94740893      17.32659478        0       1.00000000      -0.27583695       2.57137712       2.02244598
H        3.45401565       3.46993008      27.55670614        0       1.00000000      -1.76617636      -0.01373640       0.35319881
H        1.80941209       0.99856609       0.72463934        0       1.00000000       0.36074354      -1.01168045       0.11429089
18
Lattice="5.612310241546866 0.0 0.0 0.0 4.860403243099165 0.0 0.0 0.0 44.58243212332868" Properties=species:S:1:pos:R:3:tags:I:1:masses:R:1:momenta:R:3 KEmax=23.26679191048647 iter=399 volume=1216.1236359717223 ns_energy=5.14533817914497 last_walked_iter_clone=365 ns_P=0.0 config_n_global=399 ns_KE=13.02666480190568 pbc="T T F"
H        1.40307756       0.81006721      20.00000000        3       1.00000000       0.00000000       0.00000000       0.00000000
H        4.20923268       0.81006721      20.00000000        3       1.00000000       0.00000000       0.00000000       0.00000000
H        0.00000000       3.24026883      20.00000000        3       1.00000000       0.00000000       0.00000000       0.00000000
H        2.80615512       3.24026883      20.00000000        3       1.00000000       0.00000000       0.00000000       0.00000000
H        0.00000000       1.62013441      22.29121606        2       1.00000000       0.00000000       0.00000000       0.00000000
H        2.80615512       1.62013441      22.29121606        2       1.00000000       0.00000000       0.00000000       0.00000000
H        1.40307756       4.05033604      22.29121606        2       1.00000000       0.00000000       0.00000000       0.00000000
H        4.20923268       4.05033604      22.29121606        2       1.00000000       0.00000000       0.00000000       0.00000000
H        0.00000000       0.00000000      24.58243212        1       1.00000000       0.00000000       0.00000000       0.00000000
H        2.80615512       0.00000000      24.58243212        1       1.00000000       0.00000000       0.00000000       0.00000000
H        1.40307756       2.43020162      24.58243212        1       1.00000000       0.00000000       0.00000000       0.00000000
H        4.20923268       2.43020162      24.58243212        1       1.00000000       0.00000000       0.00000000       0.00000000
H        4.72843301       0.86180432      10.98902426        0       1.00000000       2.05174278      -0.33104020       0.69260146
H        2.86791300       1.91170426      12.84552256        0       1.00000000      -0.46262288       1.45064046      -1.92214593
H        3.45117106       4.08470295      42.13429718        0       1.00000000      -0.35257462       1.91213849      -0.94767033
H        2.99494077       3.56107653       3.95925320        0       1.00000000       0.63016394      -0.73673308       0.04005853
H        3.81643647       0.09853233      31.71314229        0       1.00000000      -1.98550349      -0.87107743       0.13363152
H        0.79733156       3.39833904      11.26864839        0       1.00000000       1.12803130      -1.82106477       0.56003286
18
Lattice="5.612310241546866 0.0 0.0 0.0 4.860403243099165 0.0 0.0 0.0 44.58243212332868" Properties=species:S:1:pos:R:3:tags:I:1:masses:R:1:momenta:R:3 KEmax=23.26679191048647 iter=499 volume=1216.1236359717223 ns_energy=3.395324911317349 last_walked_iter_clone=394 ns_P=0.0 config_n_global=499 ns_KE=10.926103215701072 pbc="T T F"
H        1.40307756       0.81006721      20.00000000        3       1.00000000       0.00000000       0.00000000       0.00000000
H        4.20923268       0.81006721      20.00000000        3       1.00000000       0.00000000       0.00000000       0.00000000
H        0.00000000       3.24026883      20.00000000        3       1.00000000       0.00000000       0.00000000       0.00000000
H        2.80615512       3.24026883      20.00000000        3       1.00000000       0.00000000       0.00000000       0.00000000
H        0.00000000       1.62013441      22.29121606        2       1.00000000       0.00000000       0.00000000       0.00000000
H        2.80615512       1.62013441      22.29121606        2       1.00000000       0.00000000       0.00000000       0.00000000
H        1.40307756       4.05033604      22.29121606        2       1.00000000       0.00000000       0.00000000       0.00000000
H        4.20923268       4.05033604      22.29121606        2       1.00000000       0.00000000       0.00000000       0.00000000
H        0.00000000       0.00000000      24.58243212        1       1.00000000       0.00000000       0.00000000       0.00000000
H        2.80615512       0.00000000      24.58243212        1       1.00000000       0.00000000       0.00000000       0.00000000
H        1.40307756       2.43020162      24.58243212        1       1.00000000       0.00000000       0.00000000       0.00000000
H        4.20923268       2.43020162      24.58243212        1       1.00000000       0.00000000       0.00000000       0.00000000
H        2.80209777       1.35547257       5.00320713        0       1.00000000      -0.82845102      -0.68351645      -1.98512804
H        0.60003283       2.24205169      14.78506850        0       1.00000000       0.94391068      -0.65890978      -0.24633885
H        1.08331413       1.68925932      37.55685652        0       1.00000000       0.22464552      -0.36651679       0.29921102
H        4.22179310       4.09139232      12.45596737        0       1.00000000      -1.33006279      -0.83283776       1.31350477
H        3.98733337       0.19475337      29.61616887        0       1.00000000       2.06041354      -0.68955256       1.43575714
H        4.94157476       1.11007706      11.09701588        0       1.00000000      -1.13365676       0.95820472       1.38719424
18
Lattice="5.612310241546866 0.0 0.0 0.0 4.860403243099165 0.0 0.0 0.0 44.58243212332868" Properties=species:S:1:pos:R:3:tags:I:1:masses:R:1:momenta:R:3 KEmax=23.26679191048647 iter=599 volume=1216.1236359717223 ns_energy=2.236688366446134 last_walked_iter_clone=555 ns_P=0.0 config_n_global=599 ns_KE=9.828873219349536 pbc="T T F"
H        1.40307756       0.81006721      20.00000000        3       1.00000000       0.00000000       0.00000000       0.00000000
H        4.20923268       0.81006721      20.00000000        3       1.00000000       0.00000000       0.00000000       0.00000000
H        0.00000000       3.24026883      20.00000000        3       1.00000000       0.00000000       0.00000000       0.00000000
H        2.80615512       3.24026883      20.00000000        3       1.00000000       0.00000000       0.00000000       0.00000000
H        0.00000000       1.62013441      22.29121606        2       1.00000000       0.00000000       0.00000000       0.00000000
H        2.80615512       1.62013441      22.29121606        2       1.00000000       0.00000000       0.00000000       0.00000000
H        1.40307756       4.05033604      22.29121606        2       1.00000000       0.00000000       0.00000000       0.00000000
H        4.20923268       4.05033604      22.29121606        2       1.00000000       0.00000000       0.00000000       0.00000000
H        0.00000000       0.00000000      24.58243212        1       1.00000000       0.00000000       0.00000000       0.00000000
H        2.80615512       0.00000000      24.58243212        1       1.00000000       0.00000000       0.00000000       0.00000000
H        1.40307756       2.43020162      24.58243212        1       1.00000000       0.00000000       0.00000000       0.00000000
H        4.20923268       2.43020162      24.58243212        1       1.00000000       0.00000000       0.00000000       0.00000000
H        2.09698889       1.22729592       0.50792902        0       1.00000000      -2.54265631       0.81768744       0.16357226
H        5.59982440       2.12433979       5.76609094        0       1.00000000       0.31095729       1.14902938       1.51216688
H        2.37380868       3.78323197      29.96841266        0       1.00000000       0.57082910      -0.94293038      -0.11667241
H        4.90120269       4.06613902      10.07458672        0       1.00000000      -1.28337435       0.01360353       0.02869068
H        2.45500294       3.71151867      41.61771659        0       1.00000000       0.68458306       1.39435541      -0.21765431
H        5.01477120       4.17347937       1.46349459        0       1.00000000      -1.46630199      -1.05886464      -0.43074458
18
Lattice="5.612310241546866 0.0 0.0 0.0 4.860403243099165 0.0 0.0 0.0 44.58243212332868" Properties=species:S:1:pos:R:3:tags:I:1:masses:R:1:momenta:R:3 KEmax=23.26679191048647 iter=699 volume=1216.1236359717223 ns_energy=1.2473727162928365 last_walked_iter_clone=629 ns_P=0.0 config_n_global=699 ns_KE=9.501838373629752 pbc="T T F"
H        1.40307756       0.81006721      20.00000000        3       1.00000000       0.00000000       0.00000000       0.00000000
H        4.20923268       0.81006721      20.00000000        3       1.00000000       0.00000000       0.00000000       0.00000000
H        0.00000000       3.24026883      20.00000000        3       1.00000000       0.00000000       0.00000000       0.00000000
H        2.80615512       3.24026883      20.00000000        3       1.00000000       0.00000000       0.00000000       0.00000000
H        0.00000000       1.62013441      22.29121606        2       1.00000000       0.00000000       0.00000000       0.00000000
H        2.80615512       1.62013441      22.29121606        2       1.00000000       0.00000000       0.00000000       0.00000000
H        1.40307756       4.05033604      22.29121606        2       1.00000000       0.00000000       0.00000000       0.00000000
H        4.20923268       4.05033604      22.29121606        2       1.00000000       0.00000000       0.00000000       0.00000000
H        0.00000000       0.00000000      24.58243212        1       1.00000000       0.00000000       0.00000000       0.00000000
H        2.80615512       0.00000000      24.58243212        1       1.00000000       0.00000000       0.00000000       0.00000000
H        1.40307756       2.43020162      24.58243212        1       1.00000000       0.00000000       0.00000000       0.00000000
H        4.20923268       2.43020162      24.58243212        1       1.00000000       0.00000000       0.00000000       0.00000000
H        2.44432503       0.44216999       4.46030167        0       1.00000000      -0.09587009      -1.15178933       1.67901600
H        4.20995406       2.60983911       3.77719708        0       1.00000000      -0.12722308      -0.09605132      -0.88063067
H        0.09163618       2.46620429      31.87181086        0       1.00000000      -1.75908888       1.46028933       0.82148740
H        1.03553658       2.58200768       1.60364739        0       1.00000000       0.33803940      -0.52345694      -0.56471515
H        4.96135904       0.38004502      27.34409683        0       1.00000000       0.28028727      -1.86097793      -1.36369157
H        4.58143840       0.61462117       0.45235953        0       1.00000000       1.23018142      -0.59502530      -0.41247203
18
Lattice="5.612310241546866 0.0 0.0 0.0 4.860403243099165 0.0 0.0 0.0 44.58243212332868" Properties=species:S:1:pos:R:3:tags:I:1:masses:R:1:momenta:R:3 KEmax=23.26679191048647 iter=799 volume=1216.1236359717223 ns_energy=0.46611008588089736 last_walked_iter_clone=622 ns_P=0.0 config_n_global=799 ns_KE=7.554410426313295 pbc="T T F"
H        1.40307756       0.81006721      20.00000000        3       1.00000000       0.00000000       0.00000000       0.00000000
H        4.20923268       0.81006721      20.00000000        3       1.00000000       0.00000000       0.00000000       0.00000000
H        0.00000000       3.24026883      20.00000000        3       1.00000000       0.00000000       0.00000000       0.00000000
H        2.80615512       3.24026883      20.00000000        3       1.00000000       0.00000000       0.00000000       0.00000000
H        0.00000000       1.62013441      22.29121606        2       1.00000000       0.00000000       0.00000000       0.00000000
H        2.80615512       1.62013441      22.29121606        2       1.00000000       0.00000000       0.00000000       0.00000000
H        1.40307756       4.05033604      22.29121606        2       1.00000000       0.00000000       0.00000000       0.00000000
H        4.20923268       4.05033604      22.29121606        2       1.00000000       0.00000000       0.00000000       0.00000000
H        0.00000000       0.00000000      24.58243212        1       1.00000000       0.00000000       0.00000000       0.00000000
H        2.80615512       0.00000000      24.58243212        1       1.00000000       0.00000000       0.00000000       0.00000000
H        1.40307756       2.43020162      24.58243212        1       1.00000000       0.00000000       0.00000000       0.00000000
H        4.20923268       2.43020162      24.58243212        1       1.00000000       0.00000000       0.00000000       0.00000000
H        1.09202767       3.59361489      15.97067061        0       1.00000000      -0.98821603      -2.40476260       0.34790870
H        2.62062255       2.92177520       6.75631932        0       1.00000000      -0.01031453       0.69902645      -0.91395482
H        2.00963861      -0.25923071      38.07080593        0       1.00000000       0.74558156      -1.32070576       0.89633741
H        2.07023787       1.87998021       4.80966205        0       1.00000000       0.79874386       0.15024441       0.87059165
H        0.36816401       3.93577842      35.36737471        0       1.00000000      -1.25543336       0.01633963      -0.01343082
H        0.47518598       0.22506928      12.11319573        0       1.00000000       0.79646840      -0.11278568       0.39818897
18
Lattice="5.612310241546866 0.0 0.0 0.0 4.860403243099165 0.0 0.0 0.0 44.58243212332868" Properties=species:S:1:pos:R:3:tags:I:1:masses:R:1:momenta:R:3 KEmax=23.26679191048647 iter=899 volume=1216.1236359717223 ns_energy=-0.18957728364798984 last_walked_iter_clone=796 ns_P=0.0 config_n_global=899 ns_KE=7.424610226284118 pbc="T T F"
H        1.40307756       0.81006721      20.00000000        3       1.00000000       0.00000000       0.00000000       0.00000000
H        4.20923268       0.81006721      20.00000000        3       1.00000000       0.00000000       0.00000000       0.00000000
H        0.00000000       3.24026883      20.00000000        3       1.00000000       0.00000000       0.00000000       0.00000000
H        2.80615512       3.24026883      20.00000000        3       1.00000000       0.00000000       0.00000000       0.00000000
H        0.00000000       1.62013441      22.29121606        2       1.00000000       0.00000000       0.00000000       0.00000000
H        2.80615512       1.62013441      22.29121606        2       1.00000000       0.00000000       0.00000000       0.00000000
H        1.40307756       4.05033604      22.29121606        2       1.00000000       0.00000000       0.00000000       0.00000000
H        4.20923268       4.05033604      22.29121606        2       1.00000000       0.00000000       0.00000000       0.00000000
H        0.00000000       0.00000000      24.58243212        1       1.00000000       0.00000000       0.00000000       0.00000000
H        2.80615512       0.00000000      24.58243212        1       1.00000000       0.00000000       0.00000000       0.00000000
H        1.40307756       2.43020162      24.58243212        1       1.00000000       0.00000000       0.00000000       0.00000000
H        4.20923268       2.43020162      24.58243212        1       1.00000000       0.00000000       0.00000000       0.00000000
H        1.64366011       5.21362064      11.70553954        0       1.00000000       1.96198463       1.30934674       0.33606524
H        4.32706173       2.21361698       6.90054094        0       1.00000000      -1.46481758       0.41444354      -0.33283834
H        2.40309705       0.55351512      30.92372191        0       1.00000000       1.78707140      -0.74053728      -0.33809535
H        1.06358903       2.43405431       3.03771249        0       1.00000000      -0.29407957       0.39436078      -0.07100145
H        0.45906678       0.40807593      38.79712705        0       1.00000000      -0.17370728       0.46345950       0.19745946
H        3.83753281       1.82505783       1.68371491        0       1.00000000       1.18526409      -0.36109088      -0.90647858
18
Lattice="5.612310241546866 0.0 0.0 0.0 4.860403243099165 0.0 0.0 0.0 44.58243212332868" Properties=species:S:1:pos:R:3:tags:I:1:masses:R:1:momenta:R:3 KEmax=23.26679191048647 iter=999 volume=1216.1236359717223 ns_energy=-0.7306290008852273 last_walked_iter_clone=897 ns_P=0.0 config_n_global=999 ns_KE=6.9535719932066264 pbc="T T F"
H        1.40307756       0.81006721      20.00000000        3       1.00000000       0.00000000       0.00000000       0.00000000
H        4.20923268       0.81006721      20.00000000        3       1.00000000       0.00000000       0.00000000       0.00000000
H        0.00000000       3.24026883      20.00000000        3       1.00000000       0.00000000       0.00000000       0.00000000
H        2.80615512       3.24026883      20.00000000        3       1.00000000       0.00000000       0.00000000       0.00000000
H        0.00000000       1.62013441      22.29121606        2       1.00000000       0.00000000       0.00000000       0.00000000
H        2.80615512       1.62013441      22.29121606        2       1.00000000       0.00000000       0.00000000       0.00000000
H        1.40307756       4.05033604      22.29121606        2       1.00000000       0.00000000       0.00000000       0.00000000
H        4.20923268       4.05033604      22.29121606        2       1.00000000       0.00000000       0.00000000       0.00000000
H        0.00000000       0.00000000      24.58243212        1       1.00000000       0.00000000       0.00000000       0.00000000
H        2.80615512       0.00000000      24.58243212        1       1.00000000       0.00000000       0.00000000       0.00000000
H        1.40307756       2.43020162      24.58243212        1       1.00000000       0.00000000       0.00000000       0.00000000
H        4.20923268       2.43020162      24.58243212        1       1.00000000       0.00000000       0.00000000       0.00000000
H        0.20845489       1.15114200      12.14305688        0       1.00000000      -0.75228478      -0.61412000      -0.01081735
H        2.18183070       0.60667973       9.91310880        0       1.00000000      -0.21583725      -1.17688832      -1.74174434
H        5.36259716       0.98289848      43.47268979        0       1.00000000       0.64879746       0.76344436       0.73536845
H        0.21687237       3.63453573       5.19277843        0       1.00000000      -1.35529729       0.49929889       0.70901554
H        1.64945534       1.93203996      32.17084658        0       1.00000000       0.20056677      -1.39483016       1.37914865
H        0.79764249       3.81080668      14.34308917        0       1.00000000      -0.35211982       0.20954516       0.55633976
18
Lattice="5.612310241546866 0.0 0.0 0.0 4.860403243099165 0.0 0.0 0.0 44.58243212332868" Properties=species:S:1:pos:R:3:tags:I:1:masses:R:1:momenta:R:3 KEmax=23.26679191048647 iter=1099 volume=1216.1236359717223 ns_energy=-1.2187978401218453 last_walked_iter_clone=1009 ns_P=0.0 config_n_global=1099 ns_KE=6.197968626652451 pbc="T T F"
H        1.40307756       0.81006721      20.00000000        3       1.00000000       0.00000000       0.00000000       0.00000000
H        4.20923268       0.81006721      20.00000000        3       1.00000000       0.00000000       0.00000000       0.00000000
H        0.00000000       3.24026883      20.00000000        3       1.00000000       0.00000000       0.00000000       0.00000000
H        2.80615512       3.24026883      20.00000000        3       1.00000000       0.00000000       0.00000000       0.00000000
H        0.00000000       1.62013441      22.29121606        2       1.00000000       0.00000000       0.00000000       0.00000000
H        2.80615512       1.62013441      22.29121606        2       1.00000000       0.00000000       0.00000000       0.00000000
H        1.40307756       4.05033604      22.29121606        2       1.00000000       0.00000000       0.00000000       0.00000000
H        4.20923268       4.05033604      22.29121606        2       1.00000000       0.00000000       0.00000000       0.00000000
H        0.00000000       0.00000000      24.58243212        1       1.00000000       0.00000000       0.00000000       0.00000000
H        2.80615512       0.00000000      24.58243212        1       1.00000000       0.00000000       0.00000000       0.00000000
H        1.40307756       2.43020162      24.58243212        1       1.00000000       0.00000000       0.00000000       0.00000000
H        4.20923268       2.43020162      24.58243212        1       1.00000000       0.00000000       0.00000000       0.00000000
H        1.33588706       3.31851046      17.37525385        0       1.00000000       0.29708894      -0.22171480       1.06691611
H        2.55573845       0.18162560       7.02127017        0       1.00000000       1.29519818       0.25377829      -0.88770276
H        1.18363267       0.31124664      33.73001768        0       1.00000000      -0.62638917      -0.21327016      -0.06944760
H        0.92953009       0.83954777       0.07889620        0       1.00000000      -0.44689841       1.80753597       0.68458644
H        4.66743148       2.03924623      26.73401206        0       1.00000000      -0.51249744      -0.50935609       0.65468254
H        4.78911830       3.01563831       9.76967550        0       1.00000000       1.64365329       0.29270719       0.68850296
18
Lattice="5.612310241546866 0.0 0.0 0.0 4.860403243099165 0.0 0.0 0.0 44.58243212332868" Properties=species:S:1:pos:R:3:tags:I:1:masses:R:1:momenta:R:3 KEmax=23.26679191048647 iter=1199 volume=1216.1236359717223 ns_energy=-1.6268299106226822 last_walked_iter_clone=1091 ns_P=0.0 config_n_global=1199 ns_KE=6.466602292898583 pbc="T T F"