21
Lattice="5.612310241546866 0.0 0.0 0.0 4.860403243099165 0.0 0.0 0.0 24.582432123328676" Properties=species:S:1:pos:R:3:tags:I:1:masses:R:1:momenta:R:3:forces:R:3 KEmax=27.14459056223422 iter=95741 volume=670.5618179858607 ns_energy=-14.089240458422116 last_walked_iter_clone=95554 energy=-14.089240458658814 stress="0.02148112563671363 8.265064961413268e-09 4.934185161198397e-08 8.265064961413268e-09 0.021540837278228878 -4.6539358615186397e-08 4.934185161198397e-08 -4.6539358615186397e-08 0.010717244183959636" pbc="T T F"
H        1.40307756       0.81006721      10.00000000        3       1.00000000       0.00000000       0.00000000       0.00000000       0.00000000       0.00000000       0.00000000
H        4.20923268       0.81006721      10.00000000        3       1.00000000       0.00000000       0.00000000       0.00000000       0.00000000       0.00000000       0.00000000
H        0.00000000       3.24026883      10.00000000        3       1.00000000       0.00000000       0.00000000       0.00000000       0.00000000       0.00000000       0.00000000
H        2.80615512       3.24026883      10.00000000        3       1.00000000       0.00000000       0.00000000       0.00000000       0.00000000       0.00000000       0.00000000
H        0.00000000       1.62013441      12.29121606        2       1.00000000       0.00000000       0.00000000       0.00000000       0.00000000       0.00000000       0.00000000
H        2.80615512       1.62013441      12.29121606        2       1.00000000       0.00000000       0.00000000       0.00000000       0.00000000       0.00000000       0.00000000
H        1.40307756       4.05033604      12.29121606        2       1.00000000       0.00000000       0.00000000       0.00000000       0.00000000       0.00000000       0.00000000
H        4.20923268       4.05033604      12.29121606        2       1.00000000       0.00000000       0.00000000       0.00000000       0.00000000       0.00000000       0.00000000
H        0.00000000       0.00000000      14.58243212        1       1.00000000       0.00000000       0.00000000       0.00000000       0.00000000       0.00000000       0.00000000
H        2.80615512       0.00000000      14.58243212        1       1.00000000       0.00000000       0.00000000       0.00000000       0.00000000       0.00000000       0.00000000
H        1.40307756       2.43020162      14.58243212        1       1.00000000       0.00000000       0.00000000       0.00000000       0.00000000       0.00000000       0.00000000
H        4.20923268       2.43020162      14.58243212        1       1.00000000       0.00000000       0.00000000       0.00000000       0.00000000       0.00000000       0.00000000
H        1.40307431       0.81922574      16.83184777        0       1.00000000      -0.00000410      -0.00000217      -0.00000198       0.00000189      -0.00000608      -0.00000669
H        0.00736093       3.24442984      16.79599995        0       1.00000000      -0.00000163       0.00000427       0.00000262      -0.00000179       0.00001035      -0.00000602
H        5.61231124       1.62013017       7.77136303        0       1.00000000       0.00000416       0.00000071       0.00000462      -0.00000286       0.00000273      -0.00001158
H        2.79879095       3.24443285      16.79599960        0       1.00000000       0.00000373       0.00000190      -0.00000155      -0.00000212      -0.00000791       0.00000574
H        4.20923231       4.05033044       7.77136542        0       1.00000000       0.00000076       0.00000348      -0.00000779      -0.00000724      -0.00000535      -0.00000095
H        4.20922934       0.79347139      16.80072017        0       1.00000000       0.00000725      -0.00000713      -0.00000255       0.00000159      -0.00000152      -0.00000152
H        2.80615424       1.62013056       7.77136625        0       1.00000000      -0.00000387      -0.00000213      -0.00000071      -0.00000282       0.00000502      -0.00000591
H        4.20923592       2.42882006      19.01469444        0       1.00000000       0.00000115      -0.00000399      -0.00001536      -0.00000416       0.00000902      -0.00000953
H        1.40307521       4.05033563       7.77136486        0       1.00000000       0.00000436      -0.00000701       0.00000113       0.00001103       0.00000333      -0.00000512
21
Lattice="5.612310241546866 0.0 0.0 0.0 4.860403243099165 0.0 0.0 0.0 24.582432123328676" Properties=species:S:1:pos:R:3:tags:I:1:masses:R:1:momenta:R:3:forces:R:3 KEmax=27.14459056223422 iter=95741 volume=670.5618179858607 ns_energy=-14.089240458431794 last_walked_iter_clone=95645 energy=-14.089240458658814 stress="0.02148112563671363 8.265064961413268e-09 4.934185161198397e-08 8.265064961413268e-09 0.021540837278228878 -4.6539358615186397e-08 4.934185161198397e-08 -4.6539358615186397e-08 0.010717244183959636" pbc="T T F"
H        1.40307756       0.81006721      10.00000000        3       1.00000000       0.00000000       0.00000000       0.00000000       0.00000000       0.00000000       0.00000000
H        4.20923268       0.81006721      10.00000000        3       1.00000000       0.00000000       0.00000000       0.00000000       0.00000000       0.00000000       0.00000000
H        0.00000000       3.24026883      10.00000000        3       1.00000000       0.00000000       0.00000000       0.00000000       0.00000000       0.00000000       0.00000000
H        2.80615512       3.24026883      10.00000000        3       1.00000000       0.00000000       0.00000000       0.00000000       0.00000000       0.00000000       0.00000000
H        0.00000000       1.62013441      12.29121606        2       1.00000000       0.00000000       0.00000000       0.00000000       0.00000000       0.00000000       0.00000000
H        2.80615512       1.62013441      12.29121606        2       1.00000000       0.00000000       0.00000000       0.00000000       0.00000000       0.00000000       0.00000000
H        1.40307756       4.05033604      12.29121606        2       1.00000000       0.00000000       0.00000000       0.00000000       0.00000000       0.00000000       0.00000000
H        4.20923268       4.05033604      12.29121606        2       1.00000000       0.00000000       0.00000000       0.00000000       0.00000000       0.00000000       0.00000000
H        0.00000000       0.00000000      14.58243212        1       1.00000000       0.00000000       0.00000000       0.00000000       0.00000000       0.00000000       0.00000000
H        2.80615512       0.00000000      14.58243212        1       1.00000000       0.00000000       0.00000000       0.00000000       0.00000000       0.00000000       0.00000000
H        1.40307756       2.43020162      14.58243212        1       1.00000000       0.00000000       0.00000000       0.00000000       0.00000000       0.00000000       0.00000000
H        4.20923268       2.43020162      14.58243212        1       1.00000000       0.00000000       0.00000000       0.00000000       0.00000000       0.00000000       0.00000000
H        1.40307501       0.81921949      16.83184429        0       1.00000000      -0.00000260      -0.00000279       0.00000045       0.00000189      -0.00000608      -0.00000669
H        0.00736551       3.24442443      16.79599814        0       1.00000000      -0.00000337       0.00000747      -0.00000152      -0.00000179       0.00001035      -0.00000602
H        5.61231114       1.62013226       7.77137152        0       1.00000000       0.00000142      -0.00000075       0.00000098      -0.00000286       0.00000273      -0.00001158
H        2.79879377       3.24442646      16.79600449        0       1.00000000      -0.00000287       0.00001038       0.00000031      -0.00000212      -0.00000791       0.00000574
H        4.20923073       4.05033670       7.77136339        0       1.00000000      -0.00000075      -0.00000070       0.00000411      -0.00000724      -0.00000535      -0.00000095
H        4.20923559       0.79346891      16.80071376        0       1.00000000      -0.00000431      -0.00000505       0.00000287       0.00000159      -0.00000152      -0.00000152
H        2.80615666       1.62013035       7.77136824        0       1.00000000      -0.00000081      -0.00000159      -0.00000627      -0.00000282       0.00000502      -0.00000591
H        4.20925484       2.42880705      19.01468742        0       1.00000000      -0.00000152       0.00000243      -0.00000343      -0.00000416       0.00000902      -0.00000953
H        1.40307649       4.05033510       7.77137008        0       1.00000000      -0.00000139       0.00000906      -0.00000136       0.00001103       0.00000333      -0.00000512
21
Lattice="5.612310241546866 0.0 0.0 0.0 4.860403243099165 0.0 0.0 0.0 24.582432123328676" Properties=species:S:1:pos:R:3:tags:I:1:masses:R:1:momenta:R:3:forces:R:3 KEmax=27.14459056223422 iter=95741 volume=670.5618179858607 ns_energy=-14.089240458425174 last_walked_iter_clone=95730 energy=-14.089240458658814 stress="0.02148112563671363 8.265064961413268e-09 4.934185161198397e-08 8.265064961413268e-09 0.021540837278228878 -4.6539358615186397e-08 4.934185161198397e-08 -4.6539358615186397e-08 0.010717244183959636" pbc="T T F"
H        1.40307756       0.81006721      10.00000000        3       1.00000000       0.00000000       0.00000000       0.00000000       0.00000000       0.00000000       0.00000000
H        4.20923268       0.81006721      10.00000000        3       1.00000000       0.00000000       0.00000000       0.00000000       0.00000000       0.00000000       0.00000000
H        0.00000000       3.24026883      10.00000000        3       1.00000000       0.00000000       0.00000000       0.00000000       0.00000000       0.00000000       0.00000000
H        2.80615512       3.24026883      10.00000000        3       1.00000000       0.00000000       0.00000000       0.00000000       0.00000000       0.00000000       0.00000000
H        0.00000000       1.62013441      12.29121606        2       1.00000000       0.00000000       0.00000000       0.00000000       0.00000000       0.00000000       0.00000000
H        2.80615512       1.62013441      12.29121606        2       1.00000000       0.00000000       0.00000000       0.00000000       0.00000000       0.00000000       0.00000000
H        1.40307756       4.05033604      12.29121606        2       1.00000000       0.00000000       0.00000000       0.00000000       0.00000000       0.00000000       0.00000000
H        4.20923268       4.05033604      12.29121606        2       1.00000000       0.00000000       0.00000000       0.00000000       0.00000000       0.00000000       0.00000000
H        0.00000000       0.00000000      14.58243212        1       1.00000000       0.00000000       0.00000000       0.00000000       0.00000000       0.00000000       0.00000000
H        2.80615512       0.00000000      14.58243212        1       1.00000000       0.00000000       0.00000000       0.00000000       0.00000000       0.00000000       0.00000000
H        1.40307756       2.43020162      14.58243212        1       1.00000000       0.00000000       0.00000000       0.00000000       0.00000000       0.00000000       0.00000000
H        4.20923268       2.43020162      14.58243212        1       1.00000000       0.00000000       0.00000000       0.00000000       0.00000000       0.00000000       0.00000000
H        1.40308034       0.81922414      16.83185050        0       1.00000000      -0.00000405      -0.00000426      -0.00000227       0.00000189      -0.00000608      -0.00000669
H        0.00736171       3.24443108      16.79600176        0       1.00000000      -0.00000222       0.00001365       0.00000238      -0.00000179       0.00001035      -0.00000602
H        5.61230567       1.62012950       7.77136577        0       1.00000000       0.00000390      -0.00000611      -0.00000369      -0.00000286       0.00000273      -0.00001158
H        2.79879299       3.24443047      16.79599856        0       1.00000000      -0.00000001      -0.00000085      -0.00000808      -0.00000212      -0.00000791       0.00000574
H        4.20922771       4.05033103       7.77136436        0       1.00000000      -0.00000643      -0.00000035      -0.00000259      -0.00000724      -0.00000535      -0.00000095
H        4.20923346       0.79347179      16.80071216        0       1.00000000      -0.00000515      -0.00000564      -0.00000623       0.00000159      -0.00000152      -0.00000152
H        2.80615153       1.62013529       7.77136621        0       1.00000000       0.00000612       0.00000119       0.00000446      -0.00000282       0.00000502      -0.00000591
H        4.20923137       2.42880221      19.01468911        0       1.00000000       0.00000220      -0.00000082      -0.00000659      -0.00000416       0.00000902      -0.00000953
H        1.40307561       4.05033389       7.77136867        0       1.00000000      -0.00000564      -0.00000197       0.00000049       0.00001103       0.00000333      -0.00000512
21
Lattice="5.612310241546866 0.0 0.0 0.0 4.860403243099165 0.0 0.0 0.0 24.582432123328676" Properties=species:S:1:pos:R:3:tags:I:1:masses:R:1:momenta:R:3:forces:R:3 KEmax=27.14459056223422 iter=95741 volume=670.5618179858607 ns_energy=-14.089240458424692 last_walked_iter_clone=95718 energy=-14.089240458658814 stress="0.02148112563671363 8.265064961413268e-09 4.934185161198397e-08 8.265064961413268e-09 0.021540837278228878 -4.6539358615186397e-08 4.934185161198397e-08 -4.6539358615186397e-08 0.010717244183959636" pbc="T T F"
H        1.40307756       0.81006721      10.00000000        3       1.00000000       0.00000000       0.00000000       0.00000000       0.00000000       0.00000000       0.00000000
H        4.20923268       0.81006721      10.00000000        3       1.00000000       0.00000000       0.00000000       0.00000000       0.00000000       0.00000000       0.00000000
H        0.00000000       3.24026883      10.00000000        3       1.00000000       0.00000000       0.00000000       0.00000000       0.00000000       0.00000000       0.00000000
H        2.80615512       3.24026883      10.00000000        3       1.00000000       0.00000000       0.00000000       0.00000000       0.00000000       0.00000000       0.00000000
H        0.00000000       1.62013441      12.29121606        2       1.00000000       0.00000000       0.00000000       0.00000000       0.00000000       0.00000000       0.00000000
H        2.80615512       1.62013441      12.29121606        2       1.00000000       0.00000000       0.00000000       0.00000000       0.00000000       0.00000000       0.00000000
H        1.40307756       4.05033604      12.29121606        2       1.00000000       0.00000000       0.00000000       0.00000000       0.00000000       0.00000000       0.00000000
H        4.20923268       4.05033604      12.29121606        2       1.00000000       0.00000000       0.00000000       0.00000000       0.00000000       0.00000000       0.00000000
H        0.00000000       0.00000000      14.58243212        1       1.00000000       0.00000000       0.00000000       0.00000000       0.00000000       0.00000000       0.00000000
H        2.80615512       0.00000000      14.58243212        1       1.00000000       0.00000000       0.00000000       0.00000000       0.00000000       0.00000000       0.00000000
H        1.40307756       2.43020162      14.58243212        1       1.00000000       0.00000000       0.00000000       0.00000000       0.00000000       0.00000000       0.00000000
H        4.20923268       2.43020162      14.58243212        1       1.00000000       0.00000000       0.00000000       0.00000000       0.00000000       0.00000000       0.00000000
H        1.40307614       0.81922673      16.83184693        0       1.00000000      -0.00000104       0.00000299      -0.00000270       0.00000189      -0.00000608      -0.00000669
H        0.00735796       3.24443308      16.79599930        0       1.00000000      -0.00000196       0.00000322       0.00000490      -0.00000179       0.00001035      -0.00000602
H        5.61230703       1.62014020       7.77136527        0       1.00000000       0.00000784      -0.00000332       0.00000156      -0.00000286       0.00000273      -0.00001158
H        2.79878961       3.24443650      16.79599886        0       1.00000000      -0.00000181       0.00000344       0.00000483      -0.00000212      -0.00000791       0.00000574
H        4.20923141       4.05034047       7.77136601        0       1.00000000       0.00000115       0.00000382      -0.00000153      -0.00000724      -0.00000535      -0.00000095
H        4.20922829       0.79347465      16.80072126        0       1.00000000      -0.00000423      -0.00000322      -0.00000236       0.00000159      -0.00000152      -0.00000152
H        2.80615102       1.62013463       7.77137001        0       1.00000000       0.00000369       0.00001066      -0.00000589      -0.00000282       0.00000502      -0.00000591
H        4.20923294       2.42882142      19.01469310        0       1.00000000      -0.00000195      -0.00000746      -0.00000101      -0.00000416       0.00000902      -0.00000953
H        1.40307687       4.05033943       7.77136380        0       1.00000000       0.00000292       0.00000598       0.00000891       0.00001103       0.00000333      -0.00000512
21
Lattice="5.612310241546866 0.0 0.0 0.0 4.860403243099165 0.0 0.0 0.0 24.582432123328676" Properties=species:S:1:pos:R:3:tags:I:1:masses:R:1:momenta:R:3:forces:R:3 KEmax=27.14459056223422 iter=95741 volume=670.5618179858607 ns_energy=-14.089240458421301 last_walked_iter_clone=95709 energy=-14.089240458658814 stress="0.02148112563671363 8.265064961413268e-09 4.934185161198397e-08 8.265064961413268e-09 0.021540837278228878 -4.6539358615186397e-08 4.934185161198397e-08 -4.6539358615186397e-08 0.010717244183959636" pbc="T T F"
H        1.40307756       0.81006721      10.00000000        3       1.00000000       0.00000000       0.00000000       0.00000000       0.00000000       0.00000000       0.00000000
H        4.20923268       0.81006721      10.00000000        3       1.00000000       0.00000000       0.00000000       0.00000000       0.00000000       0.00000000       0.00000000
H        0.00000000       3.24026883      10.00000000        3       1.00000000       0.00000000       0.00000000       0.00000000       0.00000000       0.00000000       0.00000000
H        2.80615512       3.24026883      10.00000000        3       1.00000000       0.00000000       0.00000000       0.00000000       0.00000000       0.00000000       0.00000000
H        0.00000000       1.62013441      12.29121606        2       1.00000000       0.00000000       0.00000000       0.00000000       0.00000000       0.00000000       0.00000000
H        2.80615512       1.62013441      12.29121606        2       1.00000000       0.00000000       0.00000000       0.00000000       0.00000000       0.00000000       0.00000000
H        1.40307756       4.05033604      12.29121606        2       1.00000000       0.00000000       0.00000000       0.00000000       0.00000000       0.00000000       0.00000000
H        4.20923268       4.05033604      12.29121606        2       1.00000000       0.00000000       0.00000000       0.00000000       0.00000000       0.00000000       0.00000000
H        0.00000000       0.00000000      14.58243212        1       1.00000000       0.00000000       0.00000000       0.00000000       0.00000000       0.00000000       0.00000000
H        2.80615512       0.00000000      14.58243212        1       1.00000000       0.00000000       0.00000000       0.00000000       0.00000000       0.00000000       0.00000000
H        1.40307756       2.43020162      14.58243212        1       1.00000000       0.00000000       0.00000000       0.00000000       0.00000000       0.00000000       0.00000000
H        4.20923268       2.43020162      14.58243212        1       1.00000000       0.00000000       0.00000000       0.00000000       0.00000000       0.00000000       0.00000000
H        1.40307643       0.81922600      16.83184904        0       1.00000000       0.00000147       0.00000124      -0.00000272       0.00000189      -0.00000608      -0.00000669
H        0.00737003       3.24443345      16.79600264        0       1.00000000       0.00000275       0.00000355      -0.00000600      -0.00000179       0.00001035      -0.00000602
H        0.00000427       1.62013496       7.77136585        0       1.00000000       0.00000247      -0.00000104      -0.00000046      -0.00000286       0.00000273      -0.00001158
H        2.79879224       3.24442662      16.79599970        0       1.00000000       0.00000448      -0.00001334      -0.00000256      -0.00000212      -0.00000791       0.00000574
H        4.20923827       4.05033750       7.77136852        0       1.00000000      -0.00000041       0.00000427      -0.00000521      -0.00000724      -0.00000535      -0.00000095
H        4.20923325       0.79347116      16.80071479        0       1.00000000       0.00000077       0.00000184      -0.00000219       0.00000159      -0.00000152      -0.00000152
H        2.80615978       1.62013170       7.77136481        0       1.00000000      -0.00000408       0.00000338       0.00000127      -0.00000282       0.00000502      -0.00000591
H        4.20923616       2.42880255      19.01468932        0       1.00000000       0.00000523       0.00000598       0.00000184      -0.00000416       0.00000902      -0.00000953
H        1.40307871       4.05033876       7.77136951        0       1.00000000      -0.00000424      -0.00000085       0.00000509       0.00001103       0.00000333      -0.00000512
21
Lattice="5.612310241546866 0.0 0.0 0.0 4.860403243099165 0.0 0.0 0.0 24.582432123328676" Properties=species:S:1:pos:R:3:tags:I:1:masses:R:1:momenta:R:3:forces:R:3 KEmax=27.14459056223422 iter=95741 volume=670.5618179858607 ns_energy=-14.089240458436413 last_walked_iter_clone=95665 energy=-14.089240458658814 stress="0.02148112563671363 8.265064961413268e-09 4.934185161198397e-08 8.265064961413268e-09 0.021540837278228878 -4.6539358615186397e-08 4.934185161198397e-08 -4.6539358615186397e-08 0.010717244183959636" pbc="T T F"
H        1.40307756       0.81006721      10.00000000        3       1.00000000       0.00000000       0.00000000       0.00000000       0.00000000       0.00000000       0.00000000
H        4.20923268       0.81006721      10.00000000        3       1.00000000       0.00000000       0.00000000       0.00000000       0.00000000       0.00000000       0.00000000
H        0.00000000       3.24026883      10.00000000        3       1.00000000       0.00000000       0.00000000       0.00000000       0.00000000       0.00000000       0.00000000
H        2.80615512       3.24026883      10.00000000        3       1.00000000       0.00000000       0.00000000       0.00000000       0.00000000       0.00000000       0.00000000
H        0.00000000       1.62013441      12.29121606        2       1.00000000       0.00000000       0.00000000       0.00000000       0.00000000       0.00000000       0.00000000
H        2.80615512       1.62013441      12.29121606        2       1.00000000       0.00000000       0.00000000       0.00000000       0.00000000       0.00000000       0.00000000
H        1.40307756       4.05033604      12.29121606        2       1.00000000       0.00000000       0.00000000       0.00000000       0.00000000       0.00000000       0.00000000
H        4.20923268       4.05033604      12.29121606        2       1.00000000       0.00000000       0.00000000       0.00000000       0.00000000       0.00000000       0.00000000
H        0.00000000       0.00000000      14.58243212        1       1.00000000       0.00000000       0.00000000       0.00000000       0.00000000       0.00000000       0.00000000
H        2.80615512       0.00000000      14.58243212        1       1.00000000       0.00000000       0.00000000       0.00000000       0.00000000       0.00000000       0.00000000
H        1.40307756       2.43020162      14.58243212        1       1.00000000       0.00000000       0.00000000       0.00000000       0.00000000       0.00000000       0.00000000
H        4.20923268       2.43020162      14.58243212        1       1.00000000       0.00000000       0.00000000       0.00000000       0.00000000       0.00000000       0.00000000
H        1.40308172       0.81922610      16.83185118        0       1.00000000       0.00000489       0.00000072       0.00000770       0.00000189      -0.00000608      -0.00000669
H        0.00736333       3.24443491      16.79599891        0       1.00000000      -0.00000301      -0.00000211       0.00000747      -0.00000179       0.00001035      -0.00000602
H        5.61231077       1.62013415       7.77136760        0       1.00000000      -0.00000551      -0.00000064      -0.00000132      -0.00000286       0.00000273      -0.00001158
H        2.79879344       3.24442913      16.79599767        0       1.00000000      -0.00000229      -0.00000389       0.00000379      -0.00000212      -0.00000791       0.00000574
H        4.20923714       4.05033302       7.77136650        0       1.00000000      -0.00000695      -0.00000090       0.00000621      -0.00000724      -0.00000535      -0.00000095
H        4.20923537       0.79347256      16.80071905        0       1.00000000       0.00000143       0.00000104       0.00000027       0.00000159      -0.00000152      -0.00000152
H        2.80615344       1.62013193       7.77136344        0       1.00000000       0.00000069       0.00000037       0.00000016      -0.00000282       0.00000502      -0.00000591
H        4.20923430       2.42881663      19.01469303        0       1.00000000      -0.00000082      -0.00000313      -0.00001336      -0.00000416       0.00000902      -0.00000953
H        1.40307960       4.05033538       7.77136831        0       1.00000000      -0.00000941      -0.00000333      -0.00000430       0.00001103       0.00000333      -0.00000512
21
Lattice="5.612310241546866 0.0 0.0 0.0 4.860403243099165 0.0 0.0 0.0 24.582432123328676" Properties=species:S:1:pos:R:3:tags:I:1:masses:R:1:momenta:R:3:forces:R:3 KEmax=27.14459056223422 iter=95741 volume=670.5618179858607 ns_energy=-14.089240458413261 last_walked_iter_clone=95592 energy=-14.089240458658814 stress="0.02148112563671363 8.265064961413268e-09 4.934185161198397e-08 8.265064961413268e-09 0.021540837278228878 -4.6539358615186397e-08 4.934185161198397e-08 -4.6539358615186397e-08 0.010717244183959636" pbc="T T F"
H        1.40307756       0.81006721      10.00000000        3       1.00000000       0.00000000       0.00000000       0.00000000       0.00000000       0.00000000       0.00000000
H        4.20923268       0.81006721      10.00000000        3       1.00000000       0.00000000       0.00000000       0.00000000       0.00000000       0.00000000       0.00000000
H        0.00000000       3.24026883      10.00000000        3       1.00000000       0.00000000       0.00000000       0.00000000       0.00000000       0.00000000       0.00000000
H        2.80615512       3.24026883      10.00000000        3       1.00000000       0.00000000       0.00000000       0.00000000       0.00000000       0.00000000       0.00000000
H        0.00000000       1.62013441      12.29121606        2       1.00000000       0.00000000       0.00000000       0.00000000       0.00000000       0.00000000       0.00000000
H        2.80615512       1.62013441      12.29121606        2       1.00000000       0.00000000       0.00000000       0.00000000       0.00000000       0.00000000       0.00000000
H        1.40307756       4.05033604      12.29121606        2       1.00000000       0.00000000       0.00000000       0.00000000       0.00000000       0.00000000       0.00000000
H        4.20923268       4.05033604      12.29121606        2       1.00000000       0.00000000       0.00000000       0.00000000       0.00000000       0.00000000       0.00000000
H        0.00000000       0.00000000      14.58243212        1       1.00000000       0.00000000       0.00000000       0.00000000       0.00000000       0.00000000       0.00000000
H        2.80615512       0.00000000      14.58243212        1       1.00000000       0.00000000       0.00000000       0.00000000       0.00000000       0.00000000       0.00000000
H        1.40307756       2.43020162      14.58243212        1       1.00000000       0.00000000       0.00000000       0.00000000       0.00000000       0.00000000       0.00000000
H        4.20923268       2.43020162      14.58243212        1       1.00000000       0.00000000       0.00000000       0.00000000       0.00000000       0.00000000       0.00000000
H        1.40307066       0.81921863      16.83184649        0       1.00000000       0.00000336       0.00000045      -0.00000020       0.00000189      -0.00000608      -0.00000669
H        0.00736759       3.24442738      16.79600439        0       1.00000000       0.00000329      -0.00000110       0.00000545      -0.00000179       0.00001035      -0.00000602
H       -0.00000040       1.62013540       7.77136718        0       1.00000000       0.00000532       0.00000283      -0.00000324      -0.00000286       0.00000273      -0.00001158
H        2.79878947       3.24442406      16.79599591        0       1.00000000       0.00000140       0.00000333       0.00000137      -0.00000212      -0.00000791       0.00000574
H        4.20923102       4.05033497       7.77136678        0       1.00000000      -0.00000484      -0.00000352      -0.00000170      -0.00000724      -0.00000535      -0.00000095
H        4.20922874       0.79347214      16.80071652        0       1.00000000       0.00000087       0.00000388       0.00000024       0.00000159      -0.00000152      -0.00000152