21
Lattice="5.612310241546866 0.0 0.0 0.0 4.860403243099165 0.0 0.0 0.0 24.582432123328676" Properties=species:S:1:pos:R:3:tags:I:1:masses:R:1:momenta:R:3:forces:R:3 KEmax=27.14459056223422 iter=63568 volume=670.5618179858607 ns_energy=-14.089238624699822 last_walked_iter_clone=63461 energy=-14.089239464129816 stress="0.021477104987807836 3.1388366610156903e-06 -8.293616137492362e-08 3.1388366610156903e-06 0.021541401188350566 1.0711387034029286e-06 -8.293616137492362e-08 1.0711387034029286e-06 0.010710685295806047" pbc="T T F"
H        1.40307756       0.81006721      10.00000000        3       1.00000000       0.00000000       0.00000000       0.00000000       0.00000000       0.00000000       0.00000000
H        4.20923268       0.81006721      10.00000000        3       1.00000000       0.00000000       0.00000000       0.00000000       0.00000000       0.00000000       0.00000000
H        0.00000000       3.24026883      10.00000000        3       1.00000000       0.00000000       0.00000000       0.00000000       0.00000000       0.00000000       0.00000000
H        2.80615512       3.24026883      10.00000000        3       1.00000000       0.00000000       0.00000000       0.00000000       0.00000000       0.00000000       0.00000000
H        0.00000000       1.62013441      12.29121606        2       1.00000000       0.00000000       0.00000000       0.00000000       0.00000000       0.00000000       0.00000000
H        2.80615512       1.62013441      12.29121606        2       1.00000000       0.00000000       0.00000000       0.00000000       0.00000000       0.00000000       0.00000000
H        1.40307756       4.05033604      12.29121606        2       1.00000000       0.00000000       0.00000000       0.00000000       0.00000000       0.00000000       0.00000000
H        4.20923268       4.05033604      12.29121606        2       1.00000000       0.00000000       0.00000000       0.00000000       0.00000000       0.00000000       0.00000000
H        0.00000000       0.00000000      14.58243212        1       1.00000000       0.00000000       0.00000000       0.00000000       0.00000000       0.00000000       0.00000000
H        2.80615512       0.00000000      14.58243212        1       1.00000000       0.00000000       0.00000000       0.00000000       0.00000000       0.00000000       0.00000000
H        1.40307756       2.43020162      14.58243212        1       1.00000000       0.00000000       0.00000000       0.00000000       0.00000000       0.00000000       0.00000000
H        4.20923268       2.43020162      14.58243212        1       1.00000000       0.00000000       0.00000000       0.00000000       0.00000000       0.00000000       0.00000000
H        1.40326458       0.81904123      16.83208129        0       1.00000000      -0.00006177      -0.00072858      -0.00011053      -0.00031494       0.00015513      -0.00020073
H        0.00736682       3.24426503      16.79615119        0       1.00000000       0.00010904       0.00037267      -0.00027866       0.00091596      -0.00006289      -0.00006780
H       -0.00018813       1.62009940       7.77142860        0       1.00000000       0.00003702      -0.00032022      -0.00029568      -0.00020338       0.00010324      -0.00006138
H        2.79912743       3.24410195      16.79600603        0       1.00000000      -0.00014029      -0.00013265       0.00014994      -0.00157319       0.00043811      -0.00050618
H        4.20898180       4.05048034       7.77154794        0       1.00000000       0.00030441      -0.00044025      -0.00031121       0.00070376       0.00039288      -0.00011436
H        4.20924127       0.79326646      16.80050586        0       1.00000000       0.00001240       0.00002822       0.00004328       0.00043421      -0.00000756      -0.00055399
H        2.80580743       1.62003894       7.77149103        0       1.00000000      -0.00020730       0.00003926       0.00002274       0.00020669      -0.00040077       0.00028171
H        4.20921356       2.42864991      19.01470047        0       1.00000000      -0.00029795      -0.00005795       0.00011590       0.00005562      -0.00028000       0.00109370
H        1.40319830       4.05044156       7.77139187        0       1.00000000      -0.00028031      -0.00017352       0.00017679      -0.00114657       0.00001657      -0.00011118
21
Lattice="5.612310241546866 0.0 0.0 0.0 4.860403243099165 0.0 0.0 0.0 24.582432123328676" Properties=species:S:1:pos:R:3:tags:I:1:masses:R:1:momenta:R:3:forces:R:3 KEmax=27.14459056223422 iter=63568 volume=670.5618179858607 ns_energy=-14.089238622245569 last_walked_iter_clone=63491 energy=-14.089239464129816 stress="0.021477104987807836 3.1388366610156903e-06 -8.293616137492362e-08 3.1388366610156903e-06 0.021541401188350566 1.0711387034029286e-06 -8.293616137492362e-08 1.0711387034029286e-06 0.010710685295806047" pbc="T T F"
H        1.40307756       0.81006721      10.00000000        3       1.00000000       0.00000000       0.00000000       0.00000000       0.00000000       0.00000000       0.00000000
H        4.20923268       0.81006721      10.00000000        3       1.00000000       0.00000000       0.00000000       0.00000000       0.00000000       0.00000000       0.00000000
H        0.00000000       3.24026883      10.00000000        3       1.00000000       0.00000000       0.00000000       0.00000000       0.00000000       0.00000000       0.00000000
H        2.80615512       3.24026883      10.00000000        3       1.00000000       0.00000000       0.00000000       0.00000000       0.00000000       0.00000000       0.00000000
H        0.00000000       1.62013441      12.29121606        2       1.00000000       0.00000000       0.00000000       0.00000000       0.00000000       0.00000000       0.00000000
H        2.80615512       1.62013441      12.29121606        2       1.00000000       0.00000000       0.00000000       0.00000000       0.00000000       0.00000000       0.00000000
H        1.40307756       4.05033604      12.29121606        2       1.00000000       0.00000000       0.00000000       0.00000000       0.00000000       0.00000000       0.00000000
H        4.20923268       4.05033604      12.29121606        2       1.00000000       0.00000000       0.00000000       0.00000000       0.00000000       0.00000000       0.00000000
H        0.00000000       0.00000000      14.58243212        1       1.00000000       0.00000000       0.00000000       0.00000000       0.00000000       0.00000000       0.00000000
H        2.80615512       0.00000000      14.58243212        1       1.00000000       0.00000000       0.00000000       0.00000000       0.00000000       0.00000000       0.00000000
H        1.40307756       2.43020162      14.58243212        1       1.00000000       0.00000000       0.00000000       0.00000000       0.00000000       0.00000000       0.00000000
H        4.20923268       2.43020162      14.58243212        1       1.00000000       0.00000000       0.00000000       0.00000000       0.00000000       0.00000000       0.00000000
H        1.40323226       0.81922509      16.83171891        0       1.00000000       0.00053637      -0.00035825      -0.00000250      -0.00031494       0.00015513      -0.00020073
H        0.00762887       3.24436841      16.79601982        0       1.00000000       0.00004930       0.00017695      -0.00044307       0.00091596      -0.00006289      -0.00006780
H        0.00012410       1.62013195       7.77128949        0       1.00000000      -0.00037182      -0.00001429       0.00021134      -0.00020338       0.00010324      -0.00006138
H        2.79888220       3.24424202      16.79601476        0       1.00000000      -0.00006541       0.00023610      -0.00015409      -0.00157319       0.00043811      -0.00050618
H        4.20916788       4.05056084       7.77096995        0       1.00000000      -0.00001534      -0.00008970      -0.00020428       0.00070376       0.00039288      -0.00011436
H        4.20918240       0.79314389      16.80069591        0       1.00000000       0.00030704       0.00059200      -0.00010517       0.00043421      -0.00000756      -0.00055399
H        2.80612328       1.62025029       7.77134435        0       1.00000000      -0.00005079      -0.00031455       0.00011440       0.00020669      -0.00040077       0.00028171
H        4.20877728       2.42853747      19.01428073        0       1.00000000       0.00012616       0.00011475       0.00014943       0.00005562      -0.00028000       0.00109370
H        1.40310915       4.05051164       7.77126044        0       1.00000000      -0.00003183       0.00050036      -0.00022329      -0.00114657       0.00001657      -0.00011118
21
Lattice="5.612310241546866 0.0 0.0 0.0 4.860403243099165 0.0 0.0 0.0 24.582432123328676" Properties=species:S:1:pos:R:3:tags:I:1:masses:R:1:momenta:R:3:forces:R:3 KEmax=27.14459056223422 iter=63568 volume=670.5618179858607 ns_energy=-14.089238705112605 last_walked_iter_clone=63526 energy=-14.089239464129816 stress="0.021477104987807836 3.1388366610156903e-06 -8.293616137492362e-08 3.1388366610156903e-06 0.021541401188350566 1.0711387034029286e-06 -8.293616137492362e-08 1.0711387034029286e-06 0.010710685295806047" pbc="T T F"
H        1.40307756       0.81006721      10.00000000        3       1.00000000       0.00000000       0.00000000       0.00000000       0.00000000       0.00000000       0.00000000
H        4.20923268       0.81006721      10.00000000        3       1.00000000       0.00000000       0.00000000       0.00000000       0.00000000       0.00000000       0.00000000
H        0.00000000       3.24026883      10.00000000        3       1.00000000       0.00000000       0.00000000       0.00000000       0.00000000       0.00000000       0.00000000
H        2.80615512       3.24026883      10.00000000        3       1.00000000       0.00000000       0.00000000       0.00000000       0.00000000       0.00000000       0.00000000
H        0.00000000       1.62013441      12.29121606        2       1.00000000       0.00000000       0.00000000       0.00000000       0.00000000       0.00000000       0.00000000
H        2.80615512       1.62013441      12.29121606        2       1.00000000       0.00000000       0.00000000       0.00000000       0.00000000       0.00000000       0.00000000
H        1.40307756       4.05033604      12.29121606        2       1.00000000       0.00000000       0.00000000       0.00000000       0.00000000       0.00000000       0.00000000
H        4.20923268       4.05033604      12.29121606        2       1.00000000       0.00000000       0.00000000       0.00000000       0.00000000       0.00000000       0.00000000
H        0.00000000       0.00000000      14.58243212        1       1.00000000       0.00000000       0.00000000       0.00000000       0.00000000       0.00000000       0.00000000
H        2.80615512       0.00000000      14.58243212        1       1.00000000       0.00000000       0.00000000       0.00000000       0.00000000       0.00000000       0.00000000
H        1.40307756       2.43020162      14.58243212        1       1.00000000       0.00000000       0.00000000       0.00000000       0.00000000       0.00000000       0.00000000
H        4.20923268       2.43020162      14.58243212        1       1.00000000       0.00000000       0.00000000       0.00000000       0.00000000       0.00000000       0.00000000
H        1.40311746       0.81936830      16.83190351        0       1.00000000       0.00022517      -0.00047862       0.00019095      -0.00031494       0.00015513      -0.00020073
H        0.00767539       3.24454332      16.79585956        0       1.00000000       0.00006704      -0.00021798       0.00011088       0.00091596      -0.00006289      -0.00006780
H        0.00019886       1.61998803       7.77160423        0       1.00000000      -0.00003141       0.00000829      -0.00042526      -0.00020338       0.00010324      -0.00006138
H        2.79909315       3.24428607      16.79614904        0       1.00000000      -0.00001262       0.00026166       0.00002920      -0.00157319       0.00043811      -0.00050618
H        4.20940264       4.05025506       7.77153474        0       1.00000000       0.00021280       0.00011166       0.00002209       0.00070376       0.00039288      -0.00011436
H        4.20962586       0.79320707      16.80088495        0       1.00000000      -0.00017373       0.00039616       0.00013358       0.00043421      -0.00000756      -0.00055399
H        2.80608441       1.62000563       7.77135300        0       1.00000000      -0.00015615      -0.00038507      -0.00027450       0.00020669      -0.00040077       0.00028171
H        4.21041671       2.42852173      19.01461348        0       1.00000000      -0.00007669       0.00007129       0.00010887       0.00005562      -0.00028000       0.00109370
H        1.40342383       4.05028044       7.77153457        0       1.00000000       0.00016459       0.00016639      -0.00053331      -0.00114657       0.00001657      -0.00011118
21
Lattice="5.612310241546866 0.0 0.0 0.0 4.860403243099165 0.0 0.0 0.0 24.582432123328676" Properties=species:S:1:pos:R:3:tags:I:1:masses:R:1:momenta:R:3:forces:R:3 KEmax=27.14459056223422 iter=63568 volume=670.5618179858607 ns_energy=-14.089238668537542 last_walked_iter_clone=63555 energy=-14.089239464129816 stress="0.021477104987807836 3.1388366610156903e-06 -8.293616137492362e-08 3.1388366610156903e-06 0.021541401188350566 1.0711387034029286e-06 -8.293616137492362e-08 1.0711387034029286e-06 0.010710685295806047" pbc="T T F"
H        1.40307756       0.81006721      10.00000000        3       1.00000000       0.00000000       0.00000000       0.00000000       0.00000000       0.00000000       0.00000000
H        4.20923268       0.81006721      10.00000000        3       1.00000000       0.00000000       0.00000000       0.00000000       0.00000000       0.00000000       0.00000000
H        0.00000000       3.24026883      10.00000000        3       1.00000000       0.00000000       0.00000000       0.00000000       0.00000000       0.00000000       0.00000000
H        2.80615512       3.24026883      10.00000000        3       1.00000000       0.00000000       0.00000000       0.00000000       0.00000000       0.00000000       0.00000000
H        0.00000000       1.62013441      12.29121606        2       1.00000000       0.00000000       0.00000000       0.00000000       0.00000000       0.00000000       0.00000000
H        2.80615512       1.62013441      12.29121606        2       1.00000000       0.00000000       0.00000000       0.00000000       0.00000000       0.00000000       0.00000000
H        1.40307756       4.05033604      12.29121606        2       1.00000000       0.00000000       0.00000000       0.00000000       0.00000000       0.00000000       0.00000000
H        4.20923268       4.05033604      12.29121606        2       1.00000000       0.00000000       0.00000000       0.00000000       0.00000000       0.00000000       0.00000000
H        0.00000000       0.00000000      14.58243212        1       1.00000000       0.00000000       0.00000000       0.00000000       0.00000000       0.00000000       0.00000000
H        2.80615512       0.00000000      14.58243212        1       1.00000000       0.00000000       0.00000000       0.00000000       0.00000000       0.00000000       0.00000000
H        1.40307756       2.43020162      14.58243212        1       1.00000000       0.00000000       0.00000000       0.00000000       0.00000000       0.00000000       0.00000000
H        4.20923268       2.43020162      14.58243212        1       1.00000000       0.00000000       0.00000000       0.00000000       0.00000000       0.00000000       0.00000000
H        1.40320704       0.81910530      16.83196560        0       1.00000000      -0.00021991      -0.00007726       0.00010599      -0.00031494       0.00015513      -0.00020073
H        0.00753515       3.24440948      16.79600876        0       1.00000000       0.00021040      -0.00005036       0.00033405       0.00091596      -0.00006289      -0.00006780
H        0.00024632       1.62033212       7.77144606        0       1.00000000      -0.00044366       0.00031451      -0.00058059      -0.00020338       0.00010324      -0.00006138
H        2.79889090       3.24441135      16.79609678        0       1.00000000       0.00005087      -0.00044472       0.00022783      -0.00157319       0.00043811      -0.00050618
H        4.20940098       4.05035240       7.77117210        0       1.00000000       0.00005153      -0.00017097       0.00004942       0.00070376       0.00039288      -0.00011436
H        4.20955997       0.79334942      16.80056524        0       1.00000000       0.00010429      -0.00006792       0.00029728       0.00043421      -0.00000756      -0.00055399
H        2.80621119       1.62007832       7.77126827        0       1.00000000       0.00010988       0.00019691       0.00005384       0.00020669      -0.00040077       0.00028171
H        4.20965687       2.42804857      19.01436255        0       1.00000000      -0.00021395       0.00056657      -0.00018410       0.00005562      -0.00028000       0.00109370
H        1.40339178       4.05045130       7.77118225        0       1.00000000       0.00016452      -0.00042688       0.00058221      -0.00114657       0.00001657      -0.00011118
21
Lattice="5.612310241546866 0.0 0.0 0.0 4.860403243099165 0.0 0.0 0.0 24.582432123328676" Properties=species:S:1:pos:R:3:tags:I:1:masses:R:1:momenta:R:3:forces:R:3 KEmax=27.14459056223422 iter=63568 volume=670.5618179858607 ns_energy=-14.089238623097279 last_walked_iter_clone=63479 energy=-14.089239464129816 stress="0.021477104987807836 3.1388366610156903e-06 -8.293616137492362e-08 3.1388366610156903e-06 0.021541401188350566 1.0711387034029286e-06 -8.293616137492362e-08 1.0711387034029286e-06 0.010710685295806047" pbc="T T F"
H        1.40307756       0.81006721      10.00000000        3       1.00000000       0.00000000       0.00000000       0.00000000       0.00000000       0.00000000       0.00000000
H        4.20923268       0.81006721      10.00000000        3       1.00000000       0.00000000       0.00000000       0.00000000       0.00000000       0.00000000       0.00000000
H        0.00000000       3.24026883      10.00000000        3       1.00000000       0.00000000       0.00000000       0.00000000       0.00000000       0.00000000       0.00000000
H        2.80615512       3.24026883      10.00000000        3       1.00000000       0.00000000       0.00000000       0.00000000       0.00000000       0.00000000       0.00000000
H        0.00000000       1.62013441      12.29121606        2       1.00000000       0.00000000       0.00000000       0.00000000       0.00000000       0.00000000       0.00000000
H        2.80615512       1.62013441      12.29121606        2       1.00000000       0.00000000       0.00000000       0.00000000       0.00000000       0.00000000       0.00000000
H        1.40307756       4.05033604      12.29121606        2       1.00000000       0.00000000       0.00000000       0.00000000       0.00000000       0.00000000       0.00000000
H        4.20923268       4.05033604      12.29121606        2       1.00000000       0.00000000       0.00000000       0.00000000       0.00000000       0.00000000       0.00000000
H        0.00000000       0.00000000      14.58243212        1       1.00000000       0.00000000       0.00000000       0.00000000       0.00000000       0.00000000       0.00000000
H        2.80615512       0.00000000      14.58243212        1       1.00000000       0.00000000       0.00000000       0.00000000       0.00000000       0.00000000       0.00000000
H        1.40307756       2.43020162      14.58243212        1       1.00000000       0.00000000       0.00000000       0.00000000       0.00000000       0.00000000       0.00000000
H        4.20923268       2.43020162      14.58243212        1       1.00000000       0.00000000       0.00000000       0.00000000       0.00000000       0.00000000       0.00000000
H        1.40303461       0.81947518      16.83204247        0       1.00000000      -0.00003474       0.00026909       0.00022664      -0.00031494       0.00015513      -0.00020073
H        0.00744148       3.24460401      16.79633461        0       1.00000000       0.00007001       0.00004029      -0.00003442       0.00091596      -0.00006289      -0.00006780
H        5.61247496       1.62026354       7.77107475        0       1.00000000      -0.00007990       0.00005728       0.00045163      -0.00020338       0.00010324      -0.00006138
H        2.79863792       3.24468341      16.79565460        0       1.00000000       0.00033450       0.00009172       0.00012548      -0.00157319       0.00043811      -0.00050618
H        4.20918281       4.05030803       7.77149268        0       1.00000000       0.00034665       0.00030534      -0.00018727       0.00070376       0.00039288      -0.00011436
H        4.20895569       0.79372368      16.80075073        0       1.00000000      -0.00029711      -0.00003451       0.00010179       0.00043421      -0.00000756      -0.00055399
H        2.80607938       1.62038421       7.77127379        0       1.00000000      -0.00023938       0.00033890       0.00017125       0.00020669      -0.00040077       0.00028171
H        4.20843146       2.42950431      19.01505287        0       1.00000000      -0.00030135       0.00008458      -0.00018436       0.00005562      -0.00028000       0.00109370
H        1.40319406       4.05058193       7.77139716        0       1.00000000       0.00010774       0.00030323       0.00022822      -0.00114657       0.00001657      -0.00011118
21
Lattice="5.612310241546866 0.0 0.0 0.0 4.860403243099165 0.0 0.0 0.0 24.582432123328676" Properties=species:S:1:pos:R:3:tags:I:1:masses:R:1:momenta:R:3:forces:R:3 KEmax=27.14459056223422 iter=63568 volume=670.5618179858607 ns_energy=-14.089238675778567 last_walked_iter_clone=63533 energy=-14.089239464129816 stress="0.021477104987807836 3.1388366610156903e-06 -8.293616137492362e-08 3.1388366610156903e-06 0.021541401188350566 1.0711387034029286e-06 -8.293616137492362e-08 1.0711387034029286e-06 0.010710685295806047" pbc="T T F"
H        1.40307756       0.81006721      10.00000000        3       1.00000000       0.00000000       0.00000000       0.00000000       0.00000000       0.00000000       0.00000000
H        4.20923268       0.81006721      10.00000000        3       1.00000000       0.00000000       0.00000000       0.00000000       0.00000000       0.00000000       0.00000000
H        0.00000000       3.24026883      10.00000000        3       1.00000000       0.00000000       0.00000000       0.00000000       0.00000000       0.00000000       0.00000000
H        2.80615512       3.24026883      10.00000000        3       1.00000000       0.00000000       0.00000000       0.00000000       0.00000000       0.00000000       0.00000000
H        0.00000000       1.62013441      12.29121606        2       1.00000000       0.00000000       0.00000000       0.00000000       0.00000000       0.00000000       0.00000000
H        2.80615512       1.62013441      12.29121606        2       1.00000000       0.00000000       0.00000000       0.00000000       0.00000000       0.00000000       0.00000000
H        1.40307756       4.05033604      12.29121606        2       1.00000000       0.00000000       0.00000000       0.00000000       0.00000000       0.00000000       0.00000000
H        4.20923268       4.05033604      12.29121606        2       1.00000000       0.00000000       0.00000000       0.00000000       0.00000000       0.00000000       0.00000000
H        0.00000000       0.00000000      14.58243212        1       1.00000000       0.00000000       0.00000000       0.00000000       0.00000000       0.00000000       0.00000000
H        2.80615512       0.00000000      14.58243212        1       1.00000000       0.00000000       0.00000000       0.00000000       0.00000000       0.00000000       0.00000000
H        1.40307756       2.43020162      14.58243212        1       1.00000000       0.00000000       0.00000000       0.00000000       0.00000000       0.00000000       0.00000000
H        4.20923268       2.43020162      14.58243212        1       1.00000000       0.00000000       0.00000000       0.00000000       0.00000000       0.00000000       0.00000000
H        1.40286889       0.81910125      16.83178968        0       1.00000000       0.00010625      -0.00012105       0.00030055      -0.00031494       0.00015513      -0.00020073
H        0.00737886       3.24430966      16.79608492        0       1.00000000      -0.00039414      -0.00026046       0.00014982       0.00091596      -0.00006289      -0.00006780
H       -0.00026231       1.62003683       7.77140057        0       1.00000000      -0.00004034       0.00017731      -0.00008565      -0.00020338       0.00010324      -0.00006138
H        2.79886869       3.24424229      16.79638107        0       1.00000000       0.00011193       0.00039635       0.00006333      -0.00157319       0.00043811      -0.00050618
H        4.20952323       4.05019256       7.77147560        0       1.00000000       0.00058015      -0.00005828       0.00056502       0.00070376       0.00039288      -0.00011436
H        4.20910694       0.79352531      16.80062342        0       1.00000000       0.00021971       0.00027011      -0.00018138       0.00043421      -0.00000756      -0.00055399
H        2.80622892       1.62024907       7.77151760        0       1.00000000       0.00016917       0.00009871       0.00024232       0.00020669      -0.00040077       0.00028171
H        4.21019072       2.42840670      19.01475003        0       1.00000000       0.00009402      -0.00005524      -0.00015498       0.00005562      -0.00028000       0.00109370
H        1.40312482       4.05007016       7.77128461        0       1.00000000      -0.00002882       0.00009833       0.00001713      -0.00114657       0.00001657      -0.00011118
21
Lattice="5.612310241546866 0.0 0.0 0.0 4.860403243099165 0.0 0.0 0.0 24.582432123328676" Properties=species:S:1:pos:R:3:tags:I:1:masses:R:1:momenta:R:3:forces:R:3 KEmax=27.14459056223422 iter=63568 volume=670.5618179858607 ns_energy=-14.089238623394712 last_walked_iter_clone=63482 energy=-14.089239464129816 stress="0.021477104987807836 3.1388366610156903e-06 -8.293616137492362e-08 3.1388366610156903e-06 0.021541401188350566 1.0711387034029286e-06 -8.293616137492362e-08 1.0711387034029286e-06 0.010710685295806047" pbc="T T F"
H        1.40307756       0.81006721      10.00000000        3       1.00000000       0.00000000       0.00000000       0.00000000       0.00000000       0.00000000       0.00000000
H        4.20923268       0.81006721      10.00000000        3       1.00000000       0.00000000       0.00000000       0.00000000       0.00000000       0.00000000       0.00000000
H        0.00000000       3.24026883      10.00000000        3       1.00000000       0.00000000       0.00000000       0.00000000       0.00000000       0.00000000       0.00000000
H        2.80615512       3.24026883      10.00000000        3       1.00000000       0.00000000       0.00000000       0.00000000       0.00000000       0.00000000       0.00000000
H        0.00000000       1.62013441      12.29121606        2       1.00000000       0.00000000       0.00000000       0.00000000       0.00000000       0.00000000       0.00000000
H        2.80615512       1.62013441      12.29121606        2       1.00000000       0.00000000       0.00000000       0.00000000       0.00000000       0.00000000       0.00000000
H        1.40307756       4.05033604      12.29121606        2       1.00000000       0.00000000       0.00000000       0.00000000       0.00000000       0.00000000       0.00000000
H        4.20923268       4.05033604      12.29121606        2       1.00000000       0.00000000       0.00000000       0.00000000       0.00000000       0.00000000       0.00000000
H        0.00000000       0.00000000      14.58243212        1       1.00000000       0.00000000       0.00000000       0.00000000       0.00000000       0.00000000       0.00000000
H        2.80615512       0.00000000      14.58243212        1       1.00000000       0.00000000       0.00000000       0.00000000       0.00000000       0.00000000       0.00000000
H        1.40307756       2.43020162      14.58243212        1       1.00000000       0.00000000       0.00000000       0.00000000       0.00000000       0.00000000       0.00000000
H        4.20923268       2.43020162      14.58243212        1       1.00000000       0.00000000       0.00000000       0.00000000       0.00000000       0.00000000       0.00000000
H        1.40307991       0.81886329      16.83194381        0       1.00000000       0.00009673      -0.00012176       0.00038584      -0.00031494       0.00015513      -0.00020073
H        0.00747362       3.24448125      16.79599946        0       1.00000000       0.00020190       0.00021557      -0.00005197       0.00091596      -0.00006289      -0.00006780
H        5.61215393       1.61995115       7.77121110        0       1.00000000       0.00003077      -0.00011834       0.00002706      -0.00020338       0.00010324      -0.00006138
H        2.79872055       3.24431079      16.79600439        0       1.00000000      -0.00006437       0.00020091      -0.00022332      -0.00157319       0.00043811      -0.00050618
H        4.20890737       4.05041565       7.77117963        0       1.00000000       0.00036770      -0.00010460       0.00032760       0.00070376       0.00039288      -0.00011436
H        4.20924011       0.79352347      16.80085947        0       1.00000000      -0.00002069      -0.00005267      -0.00034725       0.00043421      -0.00000756      -0.00055399