21
Lattice="5.612310241546866 0.0 0.0 0.0 4.860403243099165 0.0 0.0 0.0 24.582432123328676" Properties=species:S:1:pos:R:3:tags:I:1:masses:R:1:momenta:R:3:forces:R:3 KEmax=27.14459056223422 iter=119999 volume=670.5618179858607 ns_energy=-14.08924045891076 last_walked_iter_clone=119859 energy=-14.089240458918336 stress="0.021481116856214153 2.895839498797893e-10 1.778061664155878e-08 2.895839498797893e-10 0.02154084460008407 4.989310199348663e-09 1.778061664155878e-08 4.989310199348663e-09 0.010717222551358619" pbc="T T F"
H        1.40307756       0.81006721      10.00000000        3       1.00000000       0.00000000       0.00000000       0.00000000       0.00000000       0.00000000       0.00000000
H        4.20923268       0.81006721      10.00000000        3       1.00000000       0.00000000       0.00000000       0.00000000       0.00000000       0.00000000       0.00000000
H        0.00000000       3.24026883      10.00000000        3       1.00000000       0.00000000       0.00000000       0.00000000       0.00000000       0.00000000       0.00000000
H        2.80615512       3.24026883      10.00000000        3       1.00000000       0.00000000       0.00000000       0.00000000       0.00000000       0.00000000       0.00000000
H        0.00000000       1.62013441      12.29121606        2       1.00000000       0.00000000       0.00000000       0.00000000       0.00000000       0.00000000       0.00000000
H        2.80615512       1.62013441      12.29121606        2       1.00000000       0.00000000       0.00000000       0.00000000       0.00000000       0.00000000       0.00000000
H        1.40307756       4.05033604      12.29121606        2       1.00000000       0.00000000       0.00000000       0.00000000       0.00000000       0.00000000       0.00000000
H        4.20923268       4.05033604      12.29121606        2       1.00000000       0.00000000       0.00000000       0.00000000       0.00000000       0.00000000       0.00000000
H        0.00000000       0.00000000      14.58243212        1       1.00000000       0.00000000       0.00000000       0.00000000       0.00000000       0.00000000       0.00000000
H        2.80615512       0.00000000      14.58243212        1       1.00000000       0.00000000       0.00000000       0.00000000       0.00000000       0.00000000       0.00000000
H        1.40307756       2.43020162      14.58243212        1       1.00000000       0.00000000       0.00000000       0.00000000       0.00000000       0.00000000       0.00000000
H        4.20923268       2.43020162      14.58243212        1       1.00000000       0.00000000       0.00000000       0.00000000       0.00000000       0.00000000       0.00000000
H        1.40307918       0.81922392      16.83184651        0       1.00000000      -0.00000005       0.00000112       0.00000001       0.00000117       0.00000394       0.00000074
H        0.00736378       3.24443046      16.79599971        0       1.00000000       0.00000110      -0.00000062       0.00000079      -0.00000112      -0.00000114       0.00000285
H       -0.00000045       1.62013498       7.77136625        0       1.00000000       0.00000004      -0.00000072       0.00000019       0.00000268       0.00000070      -0.00000106
H        2.79879180       3.24443055      16.79599928        0       1.00000000       0.00000114       0.00000044      -0.00000084      -0.00000259      -0.00000350       0.00000037
H        4.20923304       4.05033641       7.77136721        0       1.00000000      -0.00000077      -0.00000114      -0.00000066      -0.00000392       0.00000020       0.00000120
H        4.20923378       0.79347238      16.80071607        0       1.00000000       0.00000047      -0.00000170       0.00000097       0.00000063       0.00000071      -0.00000060
H        2.80615480       1.62013434       7.77136677        0       1.00000000      -0.00000168       0.00000086       0.00000098      -0.00000087       0.00000194       0.00000005
H        4.20923211       2.42881108      19.01468899        0       1.00000000      -0.00000100       0.00000125      -0.00000055       0.00000045      -0.00000021      -0.00000186
H        1.40307650       4.05033646       7.77136680        0       1.00000000       0.00000133      -0.00000015       0.00000093       0.00000357      -0.00000309       0.00000000
21
Lattice="5.612310241546866 0.0 0.0 0.0 4.860403243099165 0.0 0.0 0.0 24.582432123328676" Properties=species:S:1:pos:R:3:tags:I:1:masses:R:1:momenta:R:3:forces:R:3 KEmax=27.14459056223422 iter=119999 volume=670.5618179858607 ns_energy=-14.08924045891088 last_walked_iter_clone=119981 energy=-14.089240458918336 stress="0.021481116856214153 2.895839498797893e-10 1.778061664155878e-08 2.895839498797893e-10 0.02154084460008407 4.989310199348663e-09 1.778061664155878e-08 4.989310199348663e-09 0.010717222551358619" pbc="T T F"
H        1.40307756       0.81006721      10.00000000        3       1.00000000       0.00000000       0.00000000       0.00000000       0.00000000       0.00000000       0.00000000
H        4.20923268       0.81006721      10.00000000        3       1.00000000       0.00000000       0.00000000       0.00000000       0.00000000       0.00000000       0.00000000
H        0.00000000       3.24026883      10.00000000        3       1.00000000       0.00000000       0.00000000       0.00000000       0.00000000       0.00000000       0.00000000
H        2.80615512       3.24026883      10.00000000        3       1.00000000       0.00000000       0.00000000       0.00000000       0.00000000       0.00000000       0.00000000
H        0.00000000       1.62013441      12.29121606        2       1.00000000       0.00000000       0.00000000       0.00000000       0.00000000       0.00000000       0.00000000
H        2.80615512       1.62013441      12.29121606        2       1.00000000       0.00000000       0.00000000       0.00000000       0.00000000       0.00000000       0.00000000
H        1.40307756       4.05033604      12.29121606        2       1.00000000       0.00000000       0.00000000       0.00000000       0.00000000       0.00000000       0.00000000
H        4.20923268       4.05033604      12.29121606        2       1.00000000       0.00000000       0.00000000       0.00000000       0.00000000       0.00000000       0.00000000
H        0.00000000       0.00000000      14.58243212        1       1.00000000       0.00000000       0.00000000       0.00000000       0.00000000       0.00000000       0.00000000
H        2.80615512       0.00000000      14.58243212        1       1.00000000       0.00000000       0.00000000       0.00000000       0.00000000       0.00000000       0.00000000
H        1.40307756       2.43020162      14.58243212        1       1.00000000       0.00000000       0.00000000       0.00000000       0.00000000       0.00000000       0.00000000
H        4.20923268       2.43020162      14.58243212        1       1.00000000       0.00000000       0.00000000       0.00000000       0.00000000       0.00000000       0.00000000
H        1.40307706       0.81922385      16.83184619        0       1.00000000      -0.00000030      -0.00000084       0.00000082       0.00000117       0.00000394       0.00000074
H        0.00736244       3.24443082      16.79599886        0       1.00000000       0.00000050      -0.00000043       0.00000076      -0.00000112      -0.00000114       0.00000285
H       -0.00000036       1.62013492       7.77136787        0       1.00000000      -0.00000049       0.00000025       0.00000058       0.00000268       0.00000070      -0.00000106
H        2.79879113       3.24443036      16.79599853        0       1.00000000      -0.00000074      -0.00000120       0.00000071      -0.00000259      -0.00000350       0.00000037
H        4.20923151       4.05033737       7.77136653        0       1.00000000      -0.00000175      -0.00000031       0.00000112      -0.00000392       0.00000020       0.00000120
H        4.20923229       0.79347309      16.80071746        0       1.00000000      -0.00000210       0.00000087       0.00000067       0.00000063       0.00000071      -0.00000060
H        2.80615482       1.62013517       7.77136785        0       1.00000000       0.00000102       0.00000142      -0.00000052      -0.00000087       0.00000194       0.00000005
H        4.20923221       2.42881446      19.01468797        0       1.00000000       0.00000000       0.00000036       0.00000116       0.00000045      -0.00000021      -0.00000186
H        1.40307691       4.05033677       7.77136753        0       1.00000000      -0.00000049      -0.00000120       0.00000033       0.00000357      -0.00000309       0.00000000
21
Lattice="5.612310241546866 0.0 0.0 0.0 4.860403243099165 0.0 0.0 0.0 24.582432123328676" Properties=species:S:1:pos:R:3:tags:I:1:masses:R:1:momenta:R:3:forces:R:3 KEmax=27.14459056223422 iter=119999 volume=670.5618179858607 ns_energy=-14.089240458910751 last_walked_iter_clone=119894 energy=-14.089240458918336 stress="0.021481116856214153 2.895839498797893e-10 1.778061664155878e-08 2.895839498797893e-10 0.02154084460008407 4.989310199348663e-09 1.778061664155878e-08 4.989310199348663e-09 0.010717222551358619" pbc="T T F"
H        1.40307756       0.81006721      10.00000000        3       1.00000000       0.00000000       0.00000000       0.00000000       0.00000000       0.00000000       0.00000000
H        4.20923268       0.81006721      10.00000000        3       1.00000000       0.00000000       0.00000000       0.00000000       0.00000000       0.00000000       0.00000000
H        0.00000000       3.24026883      10.00000000        3       1.00000000       0.00000000       0.00000000       0.00000000       0.00000000       0.00000000       0.00000000
H        2.80615512       3.24026883      10.00000000        3       1.00000000       0.00000000       0.00000000       0.00000000       0.00000000       0.00000000       0.00000000
H        0.00000000       1.62013441      12.29121606        2       1.00000000       0.00000000       0.00000000       0.00000000       0.00000000       0.00000000       0.00000000
H        2.80615512       1.62013441      12.29121606        2       1.00000000       0.00000000       0.00000000       0.00000000       0.00000000       0.00000000       0.00000000
H        1.40307756       4.05033604      12.29121606        2       1.00000000       0.00000000       0.00000000       0.00000000       0.00000000       0.00000000       0.00000000
H        4.20923268       4.05033604      12.29121606        2       1.00000000       0.00000000       0.00000000       0.00000000       0.00000000       0.00000000       0.00000000
H        0.00000000       0.00000000      14.58243212        1       1.00000000       0.00000000       0.00000000       0.00000000       0.00000000       0.00000000       0.00000000
H        2.80615512       0.00000000      14.58243212        1       1.00000000       0.00000000       0.00000000       0.00000000       0.00000000       0.00000000       0.00000000
H        1.40307756       2.43020162      14.58243212        1       1.00000000       0.00000000       0.00000000       0.00000000       0.00000000       0.00000000       0.00000000
H        4.20923268       2.43020162      14.58243212        1       1.00000000       0.00000000       0.00000000       0.00000000       0.00000000       0.00000000       0.00000000
H        1.40307608       0.81922458      16.83184666        0       1.00000000       0.00000027      -0.00000004      -0.00000084       0.00000117       0.00000394       0.00000074
H        0.00736301       3.24443168      16.79599851        0       1.00000000      -0.00000088       0.00000015       0.00000006      -0.00000112      -0.00000114       0.00000285
H       -0.00000030       1.62013536       7.77136632        0       1.00000000      -0.00000096       0.00000021       0.00000004       0.00000268       0.00000070      -0.00000106
H        2.79879107       3.24443063      16.79599971        0       1.00000000       0.00000088       0.00000027      -0.00000083      -0.00000259      -0.00000350       0.00000037
H        4.20923119       4.05033770       7.77136733        0       1.00000000       0.00000011       0.00000048      -0.00000037      -0.00000392       0.00000020       0.00000120
H        4.20923141       0.79347360      16.80071622        0       1.00000000       0.00000095       0.00000020      -0.00000111       0.00000063       0.00000071      -0.00000060
H        2.80615508       1.62013507       7.77136686        0       1.00000000      -0.00000095       0.00000037      -0.00000065      -0.00000087       0.00000194       0.00000005
H        4.20923261       2.42881497      19.01468846        0       1.00000000      -0.00000116       0.00000088       0.00000006       0.00000045      -0.00000021      -0.00000186
H        1.40307759       4.05033651       7.77136684        0       1.00000000      -0.00000068       0.00000059       0.00000116       0.00000357      -0.00000309       0.00000000
21
Lattice="5.612310241546866 0.0 0.0 0.0 4.860403243099165 0.0 0.0 0.0 24.582432123328676" Properties=species:S:1:pos:R:3:tags:I:1:masses:R:1:momenta:R:3:forces:R:3 KEmax=27.14459056223422 iter=119999 volume=670.5618179858607 ns_energy=-14.089240458910888 last_walked_iter_clone=119797 energy=-14.089240458918336 stress="0.021481116856214153 2.895839498797893e-10 1.778061664155878e-08 2.895839498797893e-10 0.02154084460008407 4.989310199348663e-09 1.778061664155878e-08 4.989310199348663e-09 0.010717222551358619" pbc="T T F"
H        1.40307756       0.81006721      10.00000000        3       1.00000000       0.00000000       0.00000000       0.00000000       0.00000000       0.00000000       0.00000000
H        4.20923268       0.81006721      10.00000000        3       1.00000000       0.00000000       0.00000000       0.00000000       0.00000000       0.00000000       0.00000000
H        0.00000000       3.24026883      10.00000000        3       1.00000000       0.00000000       0.00000000       0.00000000       0.00000000       0.00000000       0.00000000
H        2.80615512       3.24026883      10.00000000        3       1.00000000       0.00000000       0.00000000       0.00000000       0.00000000       0.00000000       0.00000000
H        0.00000000       1.62013441      12.29121606        2       1.00000000       0.00000000       0.00000000       0.00000000       0.00000000       0.00000000       0.00000000
H        2.80615512       1.62013441      12.29121606        2       1.00000000       0.00000000       0.00000000       0.00000000       0.00000000       0.00000000       0.00000000
H        1.40307756       4.05033604      12.29121606        2       1.00000000       0.00000000       0.00000000       0.00000000       0.00000000       0.00000000       0.00000000
H        4.20923268       4.05033604      12.29121606        2       1.00000000       0.00000000       0.00000000       0.00000000       0.00000000       0.00000000       0.00000000
H        0.00000000       0.00000000      14.58243212        1       1.00000000       0.00000000       0.00000000       0.00000000       0.00000000       0.00000000       0.00000000
H        2.80615512       0.00000000      14.58243212        1       1.00000000       0.00000000       0.00000000       0.00000000       0.00000000       0.00000000       0.00000000
H        1.40307756       2.43020162      14.58243212        1       1.00000000       0.00000000       0.00000000       0.00000000       0.00000000       0.00000000       0.00000000
H        4.20923268       2.43020162      14.58243212        1       1.00000000       0.00000000       0.00000000       0.00000000       0.00000000       0.00000000       0.00000000
H        1.40307641       0.81922322      16.83184582        0       1.00000000       0.00000042      -0.00000143       0.00000074       0.00000117       0.00000394       0.00000074
H        0.00736197       3.24442933      16.79599877        0       1.00000000       0.00000072      -0.00000103       0.00000045      -0.00000112      -0.00000114       0.00000285
H        5.61231098       1.62013549       7.77136619        0       1.00000000      -0.00000044      -0.00000001       0.00000031       0.00000268       0.00000070      -0.00000106
H        2.79879108       3.24442971      16.79600001        0       1.00000000      -0.00000065       0.00000014      -0.00000004      -0.00000259      -0.00000350       0.00000037
H        4.20923309       4.05033628       7.77136758        0       1.00000000       0.00000024      -0.00000115      -0.00000038      -0.00000392       0.00000020       0.00000120
H        4.20923123       0.79347219      16.80071714        0       1.00000000       0.00000173       0.00000018      -0.00000023       0.00000063       0.00000071      -0.00000060
H        2.80615553       1.62013406       7.77136750        0       1.00000000      -0.00000062       0.00000058       0.00000058      -0.00000087       0.00000194       0.00000005
H        4.20923364       2.42881362      19.01468851        0       1.00000000      -0.00000185      -0.00000022      -0.00000006       0.00000045      -0.00000021      -0.00000186
H        1.40307794       4.05033664       7.77136754        0       1.00000000       0.00000054       0.00000244       0.00000042       0.00000357      -0.00000309       0.00000000
21
Lattice="5.612310241546866 0.0 0.0 0.0 4.860403243099165 0.0 0.0 0.0 24.582432123328676" Properties=species:S:1:pos:R:3:tags:I:1:masses:R:1:momenta:R:3:forces:R:3 KEmax=27.14459056223422 iter=119999 volume=670.5618179858607 ns_energy=-14.08924045891031 last_walked_iter_clone=119869 energy=-14.089240458918336 stress="0.021481116856214153 2.895839498797893e-10 1.778061664155878e-08 2.895839498797893e-10 0.02154084460008407 4.989310199348663e-09 1.778061664155878e-08 4.989310199348663e-09 0.010717222551358619" pbc="T T F"
H        1.40307756       0.81006721      10.00000000        3       1.00000000       0.00000000       0.00000000       0.00000000       0.00000000       0.00000000       0.00000000
H        4.20923268       0.81006721      10.00000000        3       1.00000000       0.00000000       0.00000000       0.00000000       0.00000000       0.00000000       0.00000000
H        0.00000000       3.24026883      10.00000000        3       1.00000000       0.00000000       0.00000000       0.00000000       0.00000000       0.00000000       0.00000000
H        2.80615512       3.24026883      10.00000000        3       1.00000000       0.00000000       0.00000000       0.00000000       0.00000000       0.00000000       0.00000000
H        0.00000000       1.62013441      12.29121606        2       1.00000000       0.00000000       0.00000000       0.00000000       0.00000000       0.00000000       0.00000000
H        2.80615512       1.62013441      12.29121606        2       1.00000000       0.00000000       0.00000000       0.00000000       0.00000000       0.00000000       0.00000000
H        1.40307756       4.05033604      12.29121606        2       1.00000000       0.00000000       0.00000000       0.00000000       0.00000000       0.00000000       0.00000000
H        4.20923268       4.05033604      12.29121606        2       1.00000000       0.00000000       0.00000000       0.00000000       0.00000000       0.00000000       0.00000000
H        0.00000000       0.00000000      14.58243212        1       1.00000000       0.00000000       0.00000000       0.00000000       0.00000000       0.00000000       0.00000000
H        2.80615512       0.00000000      14.58243212        1       1.00000000       0.00000000       0.00000000       0.00000000       0.00000000       0.00000000       0.00000000
H        1.40307756       2.43020162      14.58243212        1       1.00000000       0.00000000       0.00000000       0.00000000       0.00000000       0.00000000       0.00000000
H        4.20923268       2.43020162      14.58243212        1       1.00000000       0.00000000       0.00000000       0.00000000       0.00000000       0.00000000       0.00000000
H        1.40307754       0.81922283      16.83184558        0       1.00000000      -0.00000096      -0.00000045      -0.00000080       0.00000117       0.00000394       0.00000074
H        0.00736254       3.24442938      16.79599936        0       1.00000000      -0.00000053      -0.00000155       0.00000118      -0.00000112      -0.00000114       0.00000285
H        5.61230933       1.62013368       7.77136607        0       1.00000000       0.00000029       0.00000003      -0.00000068       0.00000268       0.00000070      -0.00000106
H        2.79879077       3.24443002      16.79599915        0       1.00000000       0.00000021       0.00000055      -0.00000034      -0.00000259      -0.00000350       0.00000037
H        4.20923280       4.05033618       7.77136696        0       1.00000000      -0.00000027      -0.00000052      -0.00000014      -0.00000392       0.00000020       0.00000120
H        4.20923226       0.79347190      16.80071620        0       1.00000000       0.00000013       0.00000070      -0.00000167       0.00000063       0.00000071      -0.00000060
H        2.80615504       1.62013405       7.77136788        0       1.00000000       0.00000039       0.00000042       0.00000087      -0.00000087       0.00000194       0.00000005
H        4.20923124       2.42880874      19.01468802        0       1.00000000       0.00000108      -0.00000039      -0.00000159       0.00000045      -0.00000021      -0.00000186
H        1.40307659       4.05033642       7.77136689        0       1.00000000      -0.00000034      -0.00000026       0.00000107       0.00000357      -0.00000309       0.00000000
21
Lattice="5.612310241546866 0.0 0.0 0.0 4.860403243099165 0.0 0.0 0.0 24.582432123328676" Properties=species:S:1:pos:R:3:tags:I:1:masses:R:1:momenta:R:3:forces:R:3 KEmax=27.14459056223422 iter=119999 volume=670.5618179858607 ns_energy=-14.089240458910988 last_walked_iter_clone=119777 energy=-14.089240458918336 stress="0.021481116856214153 2.895839498797893e-10 1.778061664155878e-08 2.895839498797893e-10 0.02154084460008407 4.989310199348663e-09 1.778061664155878e-08 4.989310199348663e-09 0.010717222551358619" pbc="T T F"
H        1.40307756       0.81006721      10.00000000        3       1.00000000       0.00000000       0.00000000       0.00000000       0.00000000       0.00000000       0.00000000
H        4.20923268       0.81006721      10.00000000        3       1.00000000       0.00000000       0.00000000       0.00000000       0.00000000       0.00000000       0.00000000
H        0.00000000       3.24026883      10.00000000        3       1.00000000       0.00000000       0.00000000       0.00000000       0.00000000       0.00000000       0.00000000
H        2.80615512       3.24026883      10.00000000        3       1.00000000       0.00000000       0.00000000       0.00000000       0.00000000       0.00000000       0.00000000
H        0.00000000       1.62013441      12.29121606        2       1.00000000       0.00000000       0.00000000       0.00000000       0.00000000       0.00000000       0.00000000
H        2.80615512       1.62013441      12.29121606        2       1.00000000       0.00000000       0.00000000       0.00000000       0.00000000       0.00000000       0.00000000
H        1.40307756       4.05033604      12.29121606        2       1.00000000       0.00000000       0.00000000       0.00000000       0.00000000       0.00000000       0.00000000
H        4.20923268       4.05033604      12.29121606        2       1.00000000       0.00000000       0.00000000       0.00000000       0.00000000       0.00000000       0.00000000
H        0.00000000       0.00000000      14.58243212        1       1.00000000       0.00000000       0.00000000       0.00000000       0.00000000       0.00000000       0.00000000
H        2.80615512       0.00000000      14.58243212        1       1.00000000       0.00000000       0.00000000       0.00000000       0.00000000       0.00000000       0.00000000
H        1.40307756       2.43020162      14.58243212        1       1.00000000       0.00000000       0.00000000       0.00000000       0.00000000       0.00000000       0.00000000
H        4.20923268       2.43020162      14.58243212        1       1.00000000       0.00000000       0.00000000       0.00000000       0.00000000       0.00000000       0.00000000
H        1.40307803       0.81922314      16.83184628        0       1.00000000       0.00000121       0.00000027       0.00000065       0.00000117       0.00000394       0.00000074
H        0.00736352       3.24442986      16.79600002        0       1.00000000       0.00000065      -0.00000043      -0.00000101      -0.00000112      -0.00000114       0.00000285
H       -0.00000110       1.62013396       7.77136744        0       1.00000000       0.00000032      -0.00000101       0.00000162       0.00000268       0.00000070      -0.00000106
H        2.79879219       3.24443005      16.79599924        0       1.00000000      -0.00000148      -0.00000112      -0.00000051      -0.00000259      -0.00000350       0.00000037
H        4.20923228       4.05033569       7.77136765        0       1.00000000       0.00000049      -0.00000016       0.00000264      -0.00000392       0.00000020       0.00000120
H        4.20923315       0.79347188      16.80071700        0       1.00000000      -0.00000074       0.00000088       0.00000038       0.00000063       0.00000071      -0.00000060
H        2.80615436       1.62013428       7.77136680        0       1.00000000       0.00000072      -0.00000011      -0.00000179      -0.00000087       0.00000194       0.00000005
H        4.20923177       2.42881313      19.01468864        0       1.00000000      -0.00000018       0.00000145      -0.00000137       0.00000045      -0.00000021      -0.00000186
H        1.40307706       4.05033609       7.77136749        0       1.00000000      -0.00000099      -0.00000149       0.00000145       0.00000357      -0.00000309       0.00000000
21
Lattice="5.612310241546866 0.0 0.0 0.0 4.860403243099165 0.0 0.0 0.0 24.582432123328676" Properties=species:S:1:pos:R:3:tags:I:1:masses:R:1:momenta:R:3:forces:R:3 KEmax=27.14459056223422 iter=119999 volume=670.5618179858607 ns_energy=-14.089240458910728 last_walked_iter_clone=119978 energy=-14.089240458918336 stress="0.021481116856214153 2.895839498797893e-10 1.778061664155878e-08 2.895839498797893e-10 0.02154084460008407 4.989310199348663e-09 1.778061664155878e-08 4.989310199348663e-09 0.010717222551358619" pbc="T T F"
H        1.40307756       0.81006721      10.00000000        3       1.00000000       0.00000000       0.00000000       0.00000000       0.00000000       0.00000000       0.00000000
H        4.20923268       0.81006721      10.00000000        3       1.00000000       0.00000000       0.00000000       0.00000000       0.00000000       0.00000000       0.00000000
H        0.00000000       3.24026883      10.00000000        3       1.00000000       0.00000000       0.00000000       0.00000000       0.00000000       0.00000000       0.00000000
H        2.80615512       3.24026883      10.00000000        3       1.00000000       0.00000000       0.00000000       0.00000000       0.00000000       0.00000000       0.00000000
H        0.00000000       1.62013441      12.29121606        2       1.00000000       0.00000000       0.00000000       0.00000000       0.00000000       0.00000000       0.00000000
H        2.80615512       1.62013441      12.29121606        2       1.00000000       0.00000000       0.00000000       0.00000000       0.00000000       0.00000000       0.00000000
H        1.40307756       4.05033604      12.29121606        2       1.00000000       0.00000000       0.00000000       0.00000000       0.00000000       0.00000000       0.00000000
H        4.20923268       4.05033604      12.29121606        2       1.00000000       0.00000000       0.00000000       0.00000000       0.00000000       0.00000000       0.00000000
H        0.00000000       0.00000000      14.58243212        1       1.00000000       0.00000000       0.00000000       0.00000000       0.00000000       0.00000000       0.00000000
H        2.80615512       0.00000000      14.58243212        1       1.00000000       0.00000000       0.00000000       0.00000000       0.00000000       0.00000000       0.00000000
H        1.40307756       2.43020162      14.58243212        1       1.00000000       0.00000000       0.00000000       0.00000000       0.00000000       0.00000000       0.00000000
H        4.20923268       2.43020162      14.58243212        1       1.00000000       0.00000000       0.00000000       0.00000000       0.00000000       0.00000000       0.00000000
H        1.40307776       0.81922356      16.83184586        0       1.00000000      -0.00000127       0.00000062       0.00000054       0.00000117       0.00000394       0.00000074
H        0.00736368       3.24443056      16.79600015        0       1.00000000       0.00000019       0.00000094       0.00000068      -0.00000112      -0.00000114       0.00000285
H       -0.00000029       1.62013473       7.77136744        0       1.00000000       0.00000035      -0.00000170      -0.00000087       0.00000268       0.00000070      -0.00000106
H        2.79879244       3.24443001      16.79599985        0       1.00000000       0.00000100      -0.00000107      -0.00000120      -0.00000259      -0.00000350       0.00000037
H        4.20923230       4.05033719       7.77136774        0       1.00000000      -0.00000015      -0.00000071      -0.00000001      -0.00000392       0.00000020       0.00000120
H        4.20923344       0.79347203      16.80071634        0       1.00000000       0.00000113       0.00000046      -0.00000128       0.00000063       0.00000071      -0.00000060