21
Lattice="5.612310241546866 0.0 0.0 0.0 4.860403243099165 0.0 0.0 0.0 24.582432123328676" Properties=species:S:1:pos:R:3:tags:I:1:masses:R:1:momenta:R:3 KEmax=27.14459056223422 iter=99 volume=670.5618179858607 ns_energy=1913.3831705508094 last_walked_iter_clone=60 ns_P=0.0 config_n_global=99 ns_KE=25.666414286670935 pbc="T T F"
H        1.40307756       0.81006721      10.00000000        3       1.00000000       0.00000000       0.00000000       0.00000000
H        4.20923268       0.81006721      10.00000000        3       1.00000000       0.00000000       0.00000000       0.00000000
H        0.00000000       3.24026883      10.00000000        3       1.00000000       0.00000000       0.00000000       0.00000000
H        2.80615512       3.24026883      10.00000000        3       1.00000000       0.00000000       0.00000000       0.00000000
H        0.00000000       1.62013441      12.29121606        2       1.00000000       0.00000000       0.00000000       0.00000000
H        2.80615512       1.62013441      12.29121606        2       1.00000000       0.00000000       0.00000000       0.00000000
H        1.40307756       4.05033604      12.29121606        2       1.00000000       0.00000000       0.00000000       0.00000000
H        4.20923268       4.05033604      12.29121606        2       1.00000000       0.00000000       0.00000000       0.00000000
H        0.00000000       0.00000000      14.58243212        1       1.00000000       0.00000000       0.00000000       0.00000000
H        2.80615512       0.00000000      14.58243212        1       1.00000000       0.00000000       0.00000000       0.00000000
H        1.40307756       2.43020162      14.58243212        1       1.00000000       0.00000000       0.00000000       0.00000000
H        4.20923268       2.43020162      14.58243212        1       1.00000000       0.00000000       0.00000000       0.00000000
H        2.71326885       2.51843472      21.74976381        0       1.00000000       2.33692366      -1.06522398      -1.70799201
H        2.11635956       3.68785780      19.66070239        0       1.00000000      -0.68289180       0.49905236       0.06960237
H        0.06908591       1.54710188       6.94993138        0       1.00000000       1.20242399      -0.86223233       1.24009083
H        0.53918591       1.74055517      21.04575278        0       1.00000000       0.68849414       0.26534475       1.52662792
H        2.47956903       3.95907815       5.92788099        0       1.00000000       0.76595646       1.40872801       0.45027929
H        1.69489776       1.97227248      17.23835624        0       1.00000000       0.05418832       1.76523027      -1.48915732
H        3.96376641       1.91544337       2.91748996        0       1.00000000       2.40253803      -1.79527378       0.63935090
H        2.03196542       3.76076170      20.89407876        0       1.00000000       1.75903271      -0.54086105      -0.71048432
H        2.43521040       2.47343895       3.37326469        0       1.00000000      -2.11024936      -2.73418494      -1.07814675
21
Lattice="5.612310241546866 0.0 0.0 0.0 4.860403243099165 0.0 0.0 0.0 24.582432123328676" Properties=species:S:1:pos:R:3:tags:I:1:masses:R:1:momenta:R:3 KEmax=27.14459056223422 iter=199 volume=670.5618179858607 ns_energy=148.26948617288636 last_walked_iter_clone=7 ns_P=0.0 config_n_global=199 ns_KE=26.078312438492517 pbc="T T F"
H        1.40307756       0.81006721      10.00000000        3       1.00000000       0.00000000       0.00000000       0.00000000
H        4.20923268       0.81006721      10.00000000        3       1.00000000       0.00000000       0.00000000       0.00000000
H        0.00000000       3.24026883      10.00000000        3       1.00000000       0.00000000       0.00000000       0.00000000
H        2.80615512       3.24026883      10.00000000        3       1.00000000       0.00000000       0.00000000       0.00000000
H        0.00000000       1.62013441      12.29121606        2       1.00000000       0.00000000       0.00000000       0.00000000
H        2.80615512       1.62013441      12.29121606        2       1.00000000       0.00000000       0.00000000       0.00000000
H        1.40307756       4.05033604      12.29121606        2       1.00000000       0.00000000       0.00000000       0.00000000
H        4.20923268       4.05033604      12.29121606        2       1.00000000       0.00000000       0.00000000       0.00000000
H        0.00000000       0.00000000      14.58243212        1       1.00000000       0.00000000       0.00000000       0.00000000
H        2.80615512       0.00000000      14.58243212        1       1.00000000       0.00000000       0.00000000       0.00000000
H        1.40307756       2.43020162      14.58243212        1       1.00000000       0.00000000       0.00000000       0.00000000
H        4.20923268       2.43020162      14.58243212        1       1.00000000       0.00000000       0.00000000       0.00000000
H        2.98534694       2.11862232      16.89560993        0       1.00000000       2.03325297      -0.69615394      -1.71141988
H        0.11938022       2.17121837      22.42626074        0       1.00000000      -1.39778553      -0.44890904       1.11364668
H        3.56890918       0.71266108       6.22267191        0       1.00000000      -0.49311575      -0.16379997      -0.44452632
H        2.69980607       0.81371927      21.21347629        0       1.00000000       0.63209153       1.61479932      -0.69788340
H        2.60748903       0.91928234       4.30915061        0       1.00000000      -0.38803125       1.97115046       0.24448815
H        4.87028129       0.70683176      20.75539191        0       1.00000000       2.01658172      -2.46885653       0.62580601
H        3.90881696       0.09851521       4.67820161        0       1.00000000       1.22734777      -0.78458112       1.66850001
H        0.84527227       3.48502547      17.92904809        0       1.00000000      -2.50564933      -2.09115083      -1.03509340
H        0.81377067       0.22995583       2.83125977        0       1.00000000      -0.18834486      -0.28130174      -2.42060144
21
Lattice="5.612310241546866 0.0 0.0 0.0 4.860403243099165 0.0 0.0 0.0 24.582432123328676" Properties=species:S:1:pos:R:3:tags:I:1:masses:R:1:momenta:R:3 KEmax=27.14459056223422 iter=299 volume=670.5618179858607 ns_energy=47.453810539630126 last_walked_iter_clone=21 ns_P=0.0 config_n_global=299 ns_KE=25.356618737380497 pbc="T T F"
H        1.40307756       0.81006721      10.00000000        3       1.00000000       0.00000000       0.00000000       0.00000000
H        4.20923268       0.81006721      10.00000000        3       1.00000000       0.00000000       0.00000000       0.00000000
H        0.00000000       3.24026883      10.00000000        3       1.00000000       0.00000000       0.00000000       0.00000000
H        2.80615512       3.24026883      10.00000000        3       1.00000000       0.00000000       0.00000000       0.00000000
H        0.00000000       1.62013441      12.29121606        2       1.00000000       0.00000000       0.00000000       0.00000000
H        2.80615512       1.62013441      12.29121606        2       1.00000000       0.00000000       0.00000000       0.00000000
H        1.40307756       4.05033604      12.29121606        2       1.00000000       0.00000000       0.00000000       0.00000000
H        4.20923268       4.05033604      12.29121606        2       1.00000000       0.00000000       0.00000000       0.00000000
H        0.00000000       0.00000000      14.58243212        1       1.00000000       0.00000000       0.00000000       0.00000000
H        2.80615512       0.00000000      14.58243212        1       1.00000000       0.00000000       0.00000000       0.00000000
H        1.40307756       2.43020162      14.58243212        1       1.00000000       0.00000000       0.00000000       0.00000000
H        4.20923268       2.43020162      14.58243212        1       1.00000000       0.00000000       0.00000000       0.00000000
H        5.60756256       3.67432187      19.74026126        0       1.00000000       2.27569276       1.10644385      -0.16886983
H        2.20798566       4.68538417      18.36575372        0       1.00000000      -0.96704764      -0.86560737      -1.20449722
H        4.17893587       1.60175190       7.84106957        0       1.00000000       0.76667374       1.36643523       2.59157497
H        3.74653588       2.80226884      17.82018164        0       1.00000000      -0.98978641      -0.10994745       1.17802897
H        3.03471657       1.34829147       6.31941505        0       1.00000000      -1.35647974       2.32331431       1.26655361
H        5.14324796       3.92019174      22.07206726        0       1.00000000      -0.56245934       1.24062156       1.31136893
H        4.20145267       0.80810523       5.05411786        0       1.00000000       1.89756753       1.49103756      -1.33987460
H        5.35007798       0.62674504      17.42968623        0       1.00000000       2.35320698      -1.21437346       1.46062546
H        0.32865337       0.96791037       4.20276082        0       1.00000000       0.56215196      -0.21309366      -0.22849523
21
Lattice="5.612310241546866 0.0 0.0 0.0 4.860403243099165 0.0 0.0 0.0 24.582432123328676" Properties=species:S:1:pos:R:3:tags:I:1:masses:R:1:momenta:R:3 KEmax=27.14459056223422 iter=399 volume=670.5618179858607 ns_energy=28.309635768225967 last_walked_iter_clone=183 ns_P=0.0 config_n_global=399 ns_KE=25.995560140147465 pbc="T T F"
H        1.40307756       0.81006721      10.00000000        3       1.00000000       0.00000000       0.00000000       0.00000000
H        4.20923268       0.81006721      10.00000000        3       1.00000000       0.00000000       0.00000000       0.00000000
H        0.00000000       3.24026883      10.00000000        3       1.00000000       0.00000000       0.00000000       0.00000000
H        2.80615512       3.24026883      10.00000000        3       1.00000000       0.00000000       0.00000000       0.00000000
H        0.00000000       1.62013441      12.29121606        2       1.00000000       0.00000000       0.00000000       0.00000000
H        2.80615512       1.62013441      12.29121606        2       1.00000000       0.00000000       0.00000000       0.00000000
H        1.40307756       4.05033604      12.29121606        2       1.00000000       0.00000000       0.00000000       0.00000000
H        4.20923268       4.05033604      12.29121606        2       1.00000000       0.00000000       0.00000000       0.00000000
H        0.00000000       0.00000000      14.58243212        1       1.00000000       0.00000000       0.00000000       0.00000000
H        2.80615512       0.00000000      14.58243212        1       1.00000000       0.00000000       0.00000000       0.00000000
H        1.40307756       2.43020162      14.58243212        1       1.00000000       0.00000000       0.00000000       0.00000000
H        4.20923268       2.43020162      14.58243212        1       1.00000000       0.00000000       0.00000000       0.00000000
H        5.50995095       3.56182012      18.70731069        0       1.00000000       1.79436259       2.44081099       1.67053333
H        3.65291313       2.09952351      20.45556322        0       1.00000000       0.28507211      -1.95296040      -2.69439437
H        0.19178011       2.11130700       5.36965750        0       1.00000000      -2.13122144      -0.96041684       0.00698624
H        4.10743229       0.61556978      18.11446842        0       1.00000000       1.81799453       2.70975552       0.73953121
H        0.98101690       0.18921303       7.66015587        0       1.00000000      -0.50434564       0.95016114      -0.69217698
H        1.84714525       0.82512302      21.36907505        0       1.00000000       0.45702197       0.64133582       0.78301173
H        1.45600256       2.93144115       6.46237100        0       1.00000000       0.39591347       0.60328392      -0.87455894
H        1.59022233       4.85577015      17.39846373        0       1.00000000      -1.53876444       0.26654236       0.34514909
H        0.80508053       3.22524879       2.15485369        0       1.00000000       0.65830797       1.14356684      -1.93765809
21
Lattice="5.612310241546866 0.0 0.0 0.0 4.860403243099165 0.0 0.0 0.0 24.582432123328676" Properties=species:S:1:pos:R:3:tags:I:1:masses:R:1:momenta:R:3 KEmax=27.14459056223422 iter=499 volume=670.5618179858607 ns_energy=18.921996939032162 last_walked_iter_clone=405 ns_P=0.0 config_n_global=499 ns_KE=26.029394313176425 pbc="T T F"
H        1.40307756       0.81006721      10.00000000        3       1.00000000       0.00000000       0.00000000       0.00000000
H        4.20923268       0.81006721      10.00000000        3       1.00000000       0.00000000       0.00000000       0.00000000
H        0.00000000       3.24026883      10.00000000        3       1.00000000       0.00000000       0.00000000       0.00000000
H        2.80615512       3.24026883      10.00000000        3       1.00000000       0.00000000       0.00000000       0.00000000
H        0.00000000       1.62013441      12.29121606        2       1.00000000       0.00000000       0.00000000       0.00000000
H        2.80615512       1.62013441      12.29121606        2       1.00000000       0.00000000       0.00000000       0.00000000
H        1.40307756       4.05033604      12.29121606        2       1.00000000       0.00000000       0.00000000       0.00000000
H        4.20923268       4.05033604      12.29121606        2       1.00000000       0.00000000       0.00000000       0.00000000
H        0.00000000       0.00000000      14.58243212        1       1.00000000       0.00000000       0.00000000       0.00000000
H        2.80615512       0.00000000      14.58243212        1       1.00000000       0.00000000       0.00000000       0.00000000
H        1.40307756       2.43020162      14.58243212        1       1.00000000       0.00000000       0.00000000       0.00000000
H        4.20923268       2.43020162      14.58243212        1       1.00000000       0.00000000       0.00000000       0.00000000
H        5.54697767       3.77691236      18.64341900        0       1.00000000      -1.02492642       0.36380728      -0.97410776
H        3.63828962       2.38204031      20.72970192        0       1.00000000       0.35144895      -0.10974153       2.08918751
H        5.34416750       2.26546001       4.91172461        0       1.00000000      -2.67055223       1.00313323      -0.76761076
H        4.14241075       0.49587379      17.85845463        0       1.00000000      -0.12855294       0.79168125      -1.11762817
H        0.42851889       0.25824814       7.70059079        0       1.00000000      -3.12048878       1.24873470       0.40688294
H        2.08406509       0.74219843      21.51721228        0       1.00000000       0.08789929      -0.90852889       0.36382731
H        1.52926087       3.38709148       6.99433357        0       1.00000000       0.74234714       0.77075359       1.69047324
H        1.18370096       0.01958851      17.05344714        0       1.00000000      -1.86262072       0.80065085      -2.43507481
H        0.74008262       3.32429166       1.25848364        0       1.00000000      -0.48178052      -0.40322356      -2.81809982
21
Lattice="5.612310241546866 0.0 0.0 0.0 4.860403243099165 0.0 0.0 0.0 24.582432123328676" Properties=species:S:1:pos:R:3:tags:I:1:masses:R:1:momenta:R:3 KEmax=27.14459056223422 iter=599 volume=670.5618179858607 ns_energy=16.718367273097094 last_walked_iter_clone=351 ns_P=0.0 config_n_global=599 ns_KE=25.421059210787114 pbc="T T F"
H        1.40307756       0.81006721      10.00000000        3       1.00000000       0.00000000       0.00000000       0.00000000
H        4.20923268       0.81006721      10.00000000        3       1.00000000       0.00000000       0.00000000       0.00000000
H        0.00000000       3.24026883      10.00000000        3       1.00000000       0.00000000       0.00000000       0.00000000
H        2.80615512       3.24026883      10.00000000        3       1.00000000       0.00000000       0.00000000       0.00000000
H        0.00000000       1.62013441      12.29121606        2       1.00000000       0.00000000       0.00000000       0.00000000
H        2.80615512       1.62013441      12.29121606        2       1.00000000       0.00000000       0.00000000       0.00000000
H        1.40307756       4.05033604      12.29121606        2       1.00000000       0.00000000       0.00000000       0.00000000
H        4.20923268       4.05033604      12.29121606        2       1.00000000       0.00000000       0.00000000       0.00000000
H        0.00000000       0.00000000      14.58243212        1       1.00000000       0.00000000       0.00000000       0.00000000
H        2.80615512       0.00000000      14.58243212        1       1.00000000       0.00000000       0.00000000       0.00000000
H        1.40307756       2.43020162      14.58243212        1       1.00000000       0.00000000       0.00000000       0.00000000
H        4.20923268       2.43020162      14.58243212        1       1.00000000       0.00000000       0.00000000       0.00000000
H        5.51132913       3.53307196      18.39655127        0       1.00000000       1.39777284      -0.79255021      -0.35198301
H        3.58705507       2.30119685      20.27748006        0       1.00000000       1.93229292       0.17500580      -2.79110338
H        0.16851960       2.13125001       4.99531461        0       1.00000000      -2.20706571       0.05119178      -1.21829106
H        3.96627197       0.72343806      18.20575208        0       1.00000000      -1.27070322       2.19677166      -0.16009163
H        1.24307321       0.13091647       7.67216040        0       1.00000000       2.94579440       0.27180295      -0.40528384
H        1.96633438       0.69730455      21.15787601        0       1.00000000       0.70319387       0.94736461      -1.46765119
H        1.66526117       3.00291567       6.49780846        0       1.00000000       2.07991046      -0.03749209      -1.46131865
H        1.54151442       0.07987678      17.08247245        0       1.00000000      -0.35112132       0.16738786      -1.39751316
H        0.56104046       3.19868079       2.21824596        0       1.00000000      -0.96230203      -1.24666227       0.49832015
21
Lattice="5.612310241546866 0.0 0.0 0.0 4.860403243099165 0.0 0.0 0.0 24.582432123328676" Properties=species:S:1:pos:R:3:tags:I:1:masses:R:1:momenta:R:3 KEmax=27.14459056223422 iter=699 volume=670.5618179858607 ns_energy=15.243843550421378 last_walked_iter_clone=641 ns_P=0.0 config_n_global=699 ns_KE=20.262612034365393 pbc="T T F"
H        1.40307756       0.81006721      10.00000000        3       1.00000000       0.00000000       0.00000000       0.00000000
H        4.20923268       0.81006721      10.00000000        3       1.00000000       0.00000000       0.00000000       0.00000000
H        0.00000000       3.24026883      10.00000000        3       1.00000000       0.00000000       0.00000000       0.00000000
H        2.80615512       3.24026883      10.00000000        3       1.00000000       0.00000000       0.00000000       0.00000000
H        0.00000000       1.62013441      12.29121606        2       1.00000000       0.00000000       0.00000000       0.00000000
H        2.80615512       1.62013441      12.29121606        2       1.00000000       0.00000000       0.00000000       0.00000000
H        1.40307756       4.05033604      12.29121606        2       1.00000000       0.00000000       0.00000000       0.00000000
H        4.20923268       4.05033604      12.29121606        2       1.00000000       0.00000000       0.00000000       0.00000000
H        0.00000000       0.00000000      14.58243212        1       1.00000000       0.00000000       0.00000000       0.00000000
H        2.80615512       0.00000000      14.58243212        1       1.00000000       0.00000000       0.00000000       0.00000000
H        1.40307756       2.43020162      14.58243212        1       1.00000000       0.00000000       0.00000000       0.00000000
H        4.20923268       2.43020162      14.58243212        1       1.00000000       0.00000000       0.00000000       0.00000000
H        4.23865631       4.40525225      22.30421208        0       1.00000000       0.75279479      -0.32570122      -0.02594871
H        2.43650433       1.88739852      23.57327402        0       1.00000000       2.07865520      -1.09814463       0.66062941
H        2.14555059       0.85741908       3.11254707        0       1.00000000      -0.00232025       0.07181356       0.44316346
H        2.09628327       4.09522361      22.88290896        0       1.00000000      -0.73949116      -2.24190459      -0.37910439
H        3.41701300      -0.12615486       6.18050742        0       1.00000000       1.32382335      -1.20301262       0.74148402
H        0.80008381       2.99439025      20.46255207        0       1.00000000       1.91490961       0.71110215      -2.13536020
H        2.94057537       3.85848076       3.73684346        0       1.00000000      -0.23705236       0.61485203      -1.99275098
H        3.77349963       0.36898601      24.52438022        0       1.00000000       0.41013588      -2.73989112      -0.79466078
H        0.47422550       4.05601281       4.05067694        0       1.00000000       0.15049872       1.57698876       0.51667934
21
Lattice="5.612310241546866 0.0 0.0 0.0 4.860403243099165 0.0 0.0 0.0 24.582432123328676" Properties=species:S:1:pos:R:3:tags:I:1:masses:R:1:momenta:R:3 KEmax=27.14459056223422 iter=799 volume=670.5618179858607 ns_energy=13.980995053819347 last_walked_iter_clone=760 ns_P=0.0 config_n_global=799 ns_KE=20.208694718009617 pbc="T T F"
H        1.40307756       0.81006721      10.00000000        3       1.00000000       0.00000000       0.00000000       0.00000000
H        4.20923268       0.81006721      10.00000000        3       1.00000000       0.00000000       0.00000000       0.00000000
H        0.00000000       3.24026883      10.00000000        3       1.00000000       0.00000000       0.00000000       0.00000000
H        2.80615512       3.24026883      10.00000000        3       1.00000000       0.00000000       0.00000000       0.00000000
H        0.00000000       1.62013441      12.29121606        2       1.00000000       0.00000000       0.00000000       0.00000000
H        2.80615512       1.62013441      12.29121606        2       1.00000000       0.00000000       0.00000000       0.00000000
H        1.40307756       4.05033604      12.29121606        2       1.00000000       0.00000000       0.00000000       0.00000000
H        4.20923268       4.05033604      12.29121606        2       1.00000000       0.00000000       0.00000000       0.00000000
H        0.00000000       0.00000000      14.58243212        1       1.00000000       0.00000000       0.00000000       0.00000000
H        2.80615512       0.00000000      14.58243212        1       1.00000000       0.00000000       0.00000000       0.00000000
H        1.40307756       2.43020162      14.58243212        1       1.00000000       0.00000000       0.00000000       0.00000000
H        4.20923268       2.43020162      14.58243212        1       1.00000000       0.00000000       0.00000000       0.00000000
H        1.86282194       1.44000312      20.84485587        0       1.00000000       0.86327523       1.92313120       0.30263308
H        4.64573080       4.91490262      23.46057416        0       1.00000000      -0.07739815       2.15843294       1.11874854
H        1.96000183       2.34387599       2.45846210        0       1.00000000       0.78050992      -1.17443817       0.44957455
H        0.20081602       4.14015752      16.76089038        0       1.00000000       0.00736606       0.51803700      -0.05189680
H        0.49060425       0.13143241       2.82271162        0       1.00000000      -3.78078978      -1.27283370       0.62841424
H        4.72518621       1.62574149      22.03665573        0       1.00000000      -1.83362055      -0.27991821      -2.20441558
H        1.33387139       0.68788095       0.67132077        0       1.00000000      -0.18583001      -0.78720067      -0.07721344
H        1.01067284       4.23310811      20.02102923        0       1.00000000       1.42616563       0.18731321       0.11595670
H        2.63561898       2.83890571       5.43314583        0       1.00000000      -0.11319430       0.12339212       0.35203511
21
Lattice="5.612310241546866 0.0 0.0 0.0 4.860403243099165 0.0 0.0 0.0 24.582432123328676" Properties=species:S:1:pos:R:3:tags:I:1:masses:R:1:momenta:R:3 KEmax=27.14459056223422 iter=899 volume=670.5618179858607 ns_energy=12.77531592032471 last_walked_iter_clone=867 ns_P=0.0 config_n_global=899 ns_KE=19.08497169469906 pbc="T T F"
H        1.40307756       0.81006721      10.00000000        3       1.00000000       0.00000000       0.00000000       0.00000000
H        4.20923268       0.81006721      10.00000000        3       1.00000000       0.00000000       0.00000000       0.00000000
H        0.00000000       3.24026883      10.00000000        3       1.00000000       0.00000000       0.00000000       0.00000000
H        2.80615512       3.24026883      10.00000000        3       1.00000000       0.00000000       0.00000000       0.00000000
H        0.00000000       1.62013441      12.29121606        2       1.00000000       0.00000000       0.00000000       0.00000000
H        2.80615512       1.62013441      12.29121606        2       1.00000000       0.00000000       0.00000000       0.00000000
H        1.40307756       4.05033604      12.29121606        2       1.00000000       0.00000000       0.00000000       0.00000000
H        4.20923268       4.05033604      12.29121606        2       1.00000000       0.00000000       0.00000000       0.00000000
H        0.00000000       0.00000000      14.58243212        1       1.00000000       0.00000000       0.00000000       0.00000000
H        2.80615512       0.00000000      14.58243212        1       1.00000000       0.00000000       0.00000000       0.00000000
H        1.40307756       2.43020162      14.58243212        1       1.00000000       0.00000000       0.00000000       0.00000000
H        4.20923268       2.43020162      14.58243212        1       1.00000000       0.00000000       0.00000000       0.00000000
H        1.49772507       2.77221282      21.79943079        0       1.00000000       1.07560171      -0.60709700      -1.14334600
H        0.38185424       1.39337068      23.57326863        0       1.00000000       0.71605279       0.18311171       3.36129418
H        3.06438875       4.07946175       4.30240577        0       1.00000000      -1.03081120      -0.02325323      -0.65378115
H        3.45533395       2.04434607      23.25994108        0       1.00000000      -0.16640292       1.39917375       0.06382752
H        2.28266306       2.45333893       3.19866617        0       1.00000000      -1.14028761      -0.91221365      -2.39011644
H        3.25240464       0.30076935      19.19158480        0       1.00000000      -0.44688733      -1.77265393      -0.20751683
H        0.65244853       3.42773365       5.56217358        0       1.00000000       0.42836933      -0.73373772       0.95616677
H        0.73291458      -0.00781888      17.01887387        0       1.00000000      -1.22210781      -0.36462489      -0.61295886
H        2.59702417       1.55797600       1.12059636        0       1.00000000       1.96209144      -0.28489747       1.10146790
21
Lattice="5.612310241546866 0.0 0.0 0.0 4.860403243099165 0.0 0.0 0.0 24.582432123328676" Properties=species:S:1:pos:R:3:tags:I:1:masses:R:1:momenta:R:3 KEmax=27.14459056223422 iter=999 volume=670.5618179858607 ns_energy=11.624260975463159 last_walked_iter_clone=897 ns_P=0.0 config_n_global=999 ns_KE=20.647337263164438 pbc="T T F"
H        1.40307756       0.81006721      10.00000000        3       1.00000000       0.00000000       0.00000000       0.00000000
H        4.20923268       0.81006721      10.00000000        3       1.00000000       0.00000000       0.00000000       0.00000000
H        0.00000000       3.24026883      10.00000000        3       1.00000000       0.00000000       0.00000000       0.00000000
H        2.80615512       3.24026883      10.00000000        3       1.00000000       0.00000000       0.00000000       0.00000000
H        0.00000000       1.62013441      12.29121606        2       1.00000000       0.00000000       0.00000000       0.00000000
H        2.80615512       1.62013441      12.29121606        2       1.00000000       0.00000000       0.00000000       0.00000000
H        1.40307756       4.05033604      12.29121606        2       1.00000000       0.00000000       0.00000000       0.00000000
H        4.20923268       4.05033604      12.29121606        2       1.00000000       0.00000000       0.00000000       0.00000000
H        0.00000000       0.00000000      14.58243212        1       1.00000000       0.00000000       0.00000000       0.00000000
H        2.80615512       0.00000000      14.58243212        1       1.00000000       0.00000000       0.00000000       0.00000000
H        1.40307756       2.43020162      14.58243212        1       1.00000000       0.00000000       0.00000000       0.00000000
H        4.20923268       2.43020162      14.58243212        1       1.00000000       0.00000000       0.00000000       0.00000000
H        2.42862701       4.36249019      21.75429519        0       1.00000000      -2.84364550      -0.61977226      -1.82043559
H        1.25427403       0.51180005      19.66495839        0       1.00000000       0.61091105       0.18917204       0.69458534