18
Lattice="5.612310241546866 0.0 0.0 0.0 4.860403243099165 0.0 0.0 0.0 24.582432123328676" Properties=species:S:1:pos:R:3:tags:I:1:masses:R:1:momenta:R:3:forces:R:3 KEmax=23.26679191048647 iter=228441 volume=670.5618179858607 ns_energy=-11.638031574958191 last_walked_iter_clone=227335 energy=-11.638031574959218 stress="0.022594257609840875 -3.736795034307568e-09 3.680577166053263e-09 -3.736795034307568e-09 0.022708688334928562 2.3360046407302235e-08 3.680577166053263e-09 2.3360046407302235e-08 0.012283594545292036" pbc="T T F"
H        1.40307756       0.81006721      10.00000000        3       1.00000000       0.00000000       0.00000000       0.00000000       0.00000000       0.00000000       0.00000000
H        4.20923268       0.81006721      10.00000000        3       1.00000000       0.00000000       0.00000000       0.00000000       0.00000000       0.00000000       0.00000000
H        0.00000000       3.24026883      10.00000000        3       1.00000000       0.00000000       0.00000000       0.00000000       0.00000000       0.00000000       0.00000000
H        2.80615512       3.24026883      10.00000000        3       1.00000000       0.00000000       0.00000000       0.00000000       0.00000000       0.00000000       0.00000000
H        0.00000000       1.62013441      12.29121606        2       1.00000000       0.00000000       0.00000000       0.00000000       0.00000000       0.00000000       0.00000000
H        2.80615512       1.62013441      12.29121606        2       1.00000000       0.00000000       0.00000000       0.00000000       0.00000000       0.00000000       0.00000000
H        1.40307756       4.05033604      12.29121606        2       1.00000000       0.00000000       0.00000000       0.00000000       0.00000000       0.00000000       0.00000000
H        4.20923268       4.05033604      12.29121606        2       1.00000000       0.00000000       0.00000000       0.00000000       0.00000000       0.00000000       0.00000000
H        0.00000000       0.00000000      14.58243212        1       1.00000000       0.00000000       0.00000000       0.00000000       0.00000000       0.00000000       0.00000000
H        2.80615512       0.00000000      14.58243212        1       1.00000000       0.00000000       0.00000000       0.00000000       0.00000000       0.00000000       0.00000000
H        1.40307756       2.43020162      14.58243212        1       1.00000000       0.00000000       0.00000000       0.00000000       0.00000000       0.00000000       0.00000000
H        4.20923268       2.43020162      14.58243212        1       1.00000000       0.00000000       0.00000000       0.00000000       0.00000000       0.00000000       0.00000000
H        1.39314550       4.05018917      16.81113053        0       1.00000000       0.00000127       0.00000039      -0.00000029      -0.00000016      -0.00000087      -0.00000161
H        0.00000018       1.62013414       7.77136641        0       1.00000000      -0.00000029       0.00000005       0.00000028      -0.00000069      -0.00000122       0.00000055
H        2.81608501       1.61998850      16.81113041        0       1.00000000      -0.00000033       0.00000005       0.00000041       0.00000106      -0.00000005       0.00000022
H        2.80615500       1.62013458       7.77136746        0       1.00000000      -0.00000000       0.00000125      -0.00000043       0.00000306       0.00000284       0.00000031
H        4.20923310       4.05033654       7.77136718        0       1.00000000      -0.00000147      -0.00000013      -0.00000002       0.00000102       0.00000095      -0.00000118
H        1.40307734       4.05033564       7.77136712        0       1.00000000      -0.00000087      -0.00000072      -0.00000006      -0.00000208      -0.00000050      -0.00000016
18
Lattice="5.612310241546866 0.0 0.0 0.0 4.860403243099165 0.0 0.0 0.0 24.582432123328676" Properties=species:S:1:pos:R:3:tags:I:1:masses:R:1:momenta:R:3:forces:R:3 KEmax=23.26679191048647 iter=228441 volume=670.5618179858607 ns_energy=-11.638031574958434 last_walked_iter_clone=226587 energy=-11.638031574959218 stress="0.022594257609840875 -3.736795034307568e-09 3.680577166053263e-09 -3.736795034307568e-09 0.022708688334928562 2.3360046407302235e-08 3.680577166053263e-09 2.3360046407302235e-08 0.012283594545292036" pbc="T T F"
H        1.40307756       0.81006721      10.00000000        3       1.00000000       0.00000000       0.00000000       0.00000000       0.00000000       0.00000000       0.00000000
H        4.20923268       0.81006721      10.00000000        3       1.00000000       0.00000000       0.00000000       0.00000000       0.00000000       0.00000000       0.00000000
H        0.00000000       3.24026883      10.00000000        3       1.00000000       0.00000000       0.00000000       0.00000000       0.00000000       0.00000000       0.00000000
H        2.80615512       3.24026883      10.00000000        3       1.00000000       0.00000000       0.00000000       0.00000000       0.00000000       0.00000000       0.00000000
H        0.00000000       1.62013441      12.29121606        2       1.00000000       0.00000000       0.00000000       0.00000000       0.00000000       0.00000000       0.00000000
H        2.80615512       1.62013441      12.29121606        2       1.00000000       0.00000000       0.00000000       0.00000000       0.00000000       0.00000000       0.00000000
H        1.40307756       4.05033604      12.29121606        2       1.00000000       0.00000000       0.00000000       0.00000000       0.00000000       0.00000000       0.00000000
H        4.20923268       4.05033604      12.29121606        2       1.00000000       0.00000000       0.00000000       0.00000000       0.00000000       0.00000000       0.00000000
H        0.00000000       0.00000000      14.58243212        1       1.00000000       0.00000000       0.00000000       0.00000000       0.00000000       0.00000000       0.00000000
H        2.80615512       0.00000000      14.58243212        1       1.00000000       0.00000000       0.00000000       0.00000000       0.00000000       0.00000000       0.00000000
H        1.40307756       2.43020162      14.58243212        1       1.00000000       0.00000000       0.00000000       0.00000000       0.00000000       0.00000000       0.00000000
H        4.20923268       2.43020162      14.58243212        1       1.00000000       0.00000000       0.00000000       0.00000000       0.00000000       0.00000000       0.00000000
H        1.39314591       4.05018978      16.81113006        0       1.00000000      -0.00000025       0.00000008       0.00000087      -0.00000016      -0.00000087      -0.00000161
H        5.61231005       1.62013480       7.77136717        0       1.00000000      -0.00000005      -0.00000099       0.00000082      -0.00000069      -0.00000122       0.00000055
H        2.81608737       1.61998779      16.81113028        0       1.00000000      -0.00000142      -0.00000067      -0.00000048       0.00000106      -0.00000005       0.00000022
H        2.80615492       1.62013478       7.77136742        0       1.00000000      -0.00000053      -0.00000057       0.00000044       0.00000306       0.00000284       0.00000031
H        4.20923320       4.05033645       7.77136753        0       1.00000000       0.00000055       0.00000052       0.00000091       0.00000102       0.00000095      -0.00000118
H        1.40307782       4.05033664       7.77136669        0       1.00000000       0.00000011      -0.00000045      -0.00000098      -0.00000208      -0.00000050      -0.00000016
18
Lattice="5.612310241546866 0.0 0.0 0.0 4.860403243099165 0.0 0.0 0.0 24.582432123328676" Properties=species:S:1:pos:R:3:tags:I:1:masses:R:1:momenta:R:3:forces:R:3 KEmax=23.26679191048647 iter=228441 volume=670.5618179858607 ns_energy=-11.638031574958273 last_walked_iter_clone=227166 energy=-11.638031574959218 stress="0.022594257609840875 -3.736795034307568e-09 3.680577166053263e-09 -3.736795034307568e-09 0.022708688334928562 2.3360046407302235e-08 3.680577166053263e-09 2.3360046407302235e-08 0.012283594545292036" pbc="T T F"
H        1.40307756       0.81006721      10.00000000        3       1.00000000       0.00000000       0.00000000       0.00000000       0.00000000       0.00000000       0.00000000
H        4.20923268       0.81006721      10.00000000        3       1.00000000       0.00000000       0.00000000       0.00000000       0.00000000       0.00000000       0.00000000
H        0.00000000       3.24026883      10.00000000        3       1.00000000       0.00000000       0.00000000       0.00000000       0.00000000       0.00000000       0.00000000
H        2.80615512       3.24026883      10.00000000        3       1.00000000       0.00000000       0.00000000       0.00000000       0.00000000       0.00000000       0.00000000
H        0.00000000       1.62013441      12.29121606        2       1.00000000       0.00000000       0.00000000       0.00000000       0.00000000       0.00000000       0.00000000
H        2.80615512       1.62013441      12.29121606        2       1.00000000       0.00000000       0.00000000       0.00000000       0.00000000       0.00000000       0.00000000
H        1.40307756       4.05033604      12.29121606        2       1.00000000       0.00000000       0.00000000       0.00000000       0.00000000       0.00000000       0.00000000
H        4.20923268       4.05033604      12.29121606        2       1.00000000       0.00000000       0.00000000       0.00000000       0.00000000       0.00000000       0.00000000
H        0.00000000       0.00000000      14.58243212        1       1.00000000       0.00000000       0.00000000       0.00000000       0.00000000       0.00000000       0.00000000
H        2.80615512       0.00000000      14.58243212        1       1.00000000       0.00000000       0.00000000       0.00000000       0.00000000       0.00000000       0.00000000
H        1.40307756       2.43020162      14.58243212        1       1.00000000       0.00000000       0.00000000       0.00000000       0.00000000       0.00000000       0.00000000
H        4.20923268       2.43020162      14.58243212        1       1.00000000       0.00000000       0.00000000       0.00000000       0.00000000       0.00000000       0.00000000
H        1.39314590       4.05018985      16.81113031        0       1.00000000      -0.00000022       0.00000075      -0.00000071      -0.00000016      -0.00000087      -0.00000161
H        0.00000044       1.62013437       7.77136715        0       1.00000000      -0.00000112      -0.00000006      -0.00000048      -0.00000069      -0.00000122       0.00000055
H        2.81608611       1.61998807      16.81113063        0       1.00000000       0.00000120      -0.00000097       0.00000039       0.00000106      -0.00000005       0.00000022
H        2.80615612       1.62013415       7.77136720        0       1.00000000       0.00000139       0.00000019      -0.00000000       0.00000306       0.00000284       0.00000031
H        4.20923371       4.05033575       7.77136727        0       1.00000000       0.00000069       0.00000047       0.00000038       0.00000102       0.00000095      -0.00000118
H        1.40307852       4.05033622       7.77136727        0       1.00000000      -0.00000040      -0.00000014      -0.00000092      -0.00000208      -0.00000050      -0.00000016
18
Lattice="5.612310241546866 0.0 0.0 0.0 4.860403243099165 0.0 0.0 0.0 24.582432123328676" Properties=species:S:1:pos:R:3:tags:I:1:masses:R:1:momenta:R:3:forces:R:3 KEmax=23.26679191048647 iter=228441 volume=670.5618179858607 ns_energy=-11.638031574958168 last_walked_iter_clone=227742 energy=-11.638031574959218 stress="0.022594257609840875 -3.736795034307568e-09 3.680577166053263e-09 -3.736795034307568e-09 0.022708688334928562 2.3360046407302235e-08 3.680577166053263e-09 2.3360046407302235e-08 0.012283594545292036" pbc="T T F"
H        1.40307756       0.81006721      10.00000000        3       1.00000000       0.00000000       0.00000000       0.00000000       0.00000000       0.00000000       0.00000000
H        4.20923268       0.81006721      10.00000000        3       1.00000000       0.00000000       0.00000000       0.00000000       0.00000000       0.00000000       0.00000000
H        0.00000000       3.24026883      10.00000000        3       1.00000000       0.00000000       0.00000000       0.00000000       0.00000000       0.00000000       0.00000000
H        2.80615512       3.24026883      10.00000000        3       1.00000000       0.00000000       0.00000000       0.00000000       0.00000000       0.00000000       0.00000000
H        0.00000000       1.62013441      12.29121606        2       1.00000000       0.00000000       0.00000000       0.00000000       0.00000000       0.00000000       0.00000000
H        2.80615512       1.62013441      12.29121606        2       1.00000000       0.00000000       0.00000000       0.00000000       0.00000000       0.00000000       0.00000000
H        1.40307756       4.05033604      12.29121606        2       1.00000000       0.00000000       0.00000000       0.00000000       0.00000000       0.00000000       0.00000000
H        4.20923268       4.05033604      12.29121606        2       1.00000000       0.00000000       0.00000000       0.00000000       0.00000000       0.00000000       0.00000000
H        0.00000000       0.00000000      14.58243212        1       1.00000000       0.00000000       0.00000000       0.00000000       0.00000000       0.00000000       0.00000000
H        2.80615512       0.00000000      14.58243212        1       1.00000000       0.00000000       0.00000000       0.00000000       0.00000000       0.00000000       0.00000000
H        1.40307756       2.43020162      14.58243212        1       1.00000000       0.00000000       0.00000000       0.00000000       0.00000000       0.00000000       0.00000000
H        4.20923268       2.43020162      14.58243212        1       1.00000000       0.00000000       0.00000000       0.00000000       0.00000000       0.00000000       0.00000000
H        1.39314758       4.05018855      16.81113121        0       1.00000000      -0.00000032      -0.00000090       0.00000074      -0.00000016      -0.00000087      -0.00000161
H        5.61231029       1.62013528       7.77136713        0       1.00000000       0.00000074       0.00000114       0.00000107      -0.00000069      -0.00000122       0.00000055
H        2.81608805       1.61998722      16.81113062        0       1.00000000       0.00000016      -0.00000020      -0.00000017       0.00000106      -0.00000005       0.00000022
H        2.80615479       1.62013533       7.77136700        0       1.00000000      -0.00000000      -0.00000033      -0.00000018       0.00000306       0.00000284       0.00000031
H        4.20923309       4.05033712       7.77136745        0       1.00000000       0.00000005       0.00000049      -0.00000037       0.00000102       0.00000095      -0.00000118
H        1.40307839       4.05033673       7.77136714        0       1.00000000      -0.00000050       0.00000039      -0.00000064      -0.00000208      -0.00000050      -0.00000016
18
Lattice="5.612310241546866 0.0 0.0 0.0 4.860403243099165 0.0 0.0 0.0 24.582432123328676" Properties=species:S:1:pos:R:3:tags:I:1:masses:R:1:momenta:R:3:forces:R:3 KEmax=23.26679191048647 iter=228441 volume=670.5618179858607 ns_energy=-11.638031574958152 last_walked_iter_clone=228267 energy=-11.638031574959218 stress="0.022594257609840875 -3.736795034307568e-09 3.680577166053263e-09 -3.736795034307568e-09 0.022708688334928562 2.3360046407302235e-08 3.680577166053263e-09 2.3360046407302235e-08 0.012283594545292036" pbc="T T F"
H        1.40307756       0.81006721      10.00000000        3       1.00000000       0.00000000       0.00000000       0.00000000       0.00000000       0.00000000       0.00000000
H        4.20923268       0.81006721      10.00000000        3       1.00000000       0.00000000       0.00000000       0.00000000       0.00000000       0.00000000       0.00000000
H        0.00000000       3.24026883      10.00000000        3       1.00000000       0.00000000       0.00000000       0.00000000       0.00000000       0.00000000       0.00000000
H        2.80615512       3.24026883      10.00000000        3       1.00000000       0.00000000       0.00000000       0.00000000       0.00000000       0.00000000       0.00000000
H        0.00000000       1.62013441      12.29121606        2       1.00000000       0.00000000       0.00000000       0.00000000       0.00000000       0.00000000       0.00000000
H        2.80615512       1.62013441      12.29121606        2       1.00000000       0.00000000       0.00000000       0.00000000       0.00000000       0.00000000       0.00000000
H        1.40307756       4.05033604      12.29121606        2       1.00000000       0.00000000       0.00000000       0.00000000       0.00000000       0.00000000       0.00000000
H        4.20923268       4.05033604      12.29121606        2       1.00000000       0.00000000       0.00000000       0.00000000       0.00000000       0.00000000       0.00000000
H        0.00000000       0.00000000      14.58243212        1       1.00000000       0.00000000       0.00000000       0.00000000       0.00000000       0.00000000       0.00000000
H        2.80615512       0.00000000      14.58243212        1       1.00000000       0.00000000       0.00000000       0.00000000       0.00000000       0.00000000       0.00000000
H        1.40307756       2.43020162      14.58243212        1       1.00000000       0.00000000       0.00000000       0.00000000       0.00000000       0.00000000       0.00000000
H        4.20923268       2.43020162      14.58243212        1       1.00000000       0.00000000       0.00000000       0.00000000       0.00000000       0.00000000       0.00000000
H        1.39314621       4.05018928      16.81113078        0       1.00000000       0.00000040       0.00000118       0.00000035      -0.00000016      -0.00000087      -0.00000161
H        0.00000028       1.62013500       7.77136698        0       1.00000000      -0.00000020       0.00000084       0.00000011      -0.00000069      -0.00000122       0.00000055
H        2.81608607       1.61998691      16.81113028        0       1.00000000       0.00000071      -0.00000045      -0.00000071       0.00000106      -0.00000005       0.00000022
H        2.80615528       1.62013396       7.77136725        0       1.00000000      -0.00000011      -0.00000067       0.00000062       0.00000306       0.00000284       0.00000031
H        4.20923211       4.05033604       7.77136695        0       1.00000000       0.00000106       0.00000022      -0.00000042       0.00000102       0.00000095      -0.00000118
H        1.40307710       4.05033572       7.77136621        0       1.00000000       0.00000067       0.00000043      -0.00000098      -0.00000208      -0.00000050      -0.00000016
18
Lattice="5.612310241546866 0.0 0.0 0.0 4.860403243099165 0.0 0.0 0.0 24.582432123328676" Properties=species:S:1:pos:R:3:tags:I:1:masses:R:1:momenta:R:3:forces:R:3 KEmax=23.26679191048647 iter=228441 volume=670.5618179858607 ns_energy=-11.638031574958585 last_walked_iter_clone=228218 energy=-11.638031574959218 stress="0.022594257609840875 -3.736795034307568e-09 3.680577166053263e-09 -3.736795034307568e-09 0.022708688334928562 2.3360046407302235e-08 3.680577166053263e-09 2.3360046407302235e-08 0.012283594545292036" pbc="T T F"
H        1.40307756       0.81006721      10.00000000        3       1.00000000       0.00000000       0.00000000       0.00000000       0.00000000       0.00000000       0.00000000
H        4.20923268       0.81006721      10.00000000        3       1.00000000       0.00000000       0.00000000       0.00000000       0.00000000       0.00000000       0.00000000
H        0.00000000       3.24026883      10.00000000        3       1.00000000       0.00000000       0.00000000       0.00000000       0.00000000       0.00000000       0.00000000
H        2.80615512       3.24026883      10.00000000        3       1.00000000       0.00000000       0.00000000       0.00000000       0.00000000       0.00000000       0.00000000
H        0.00000000       1.62013441      12.29121606        2       1.00000000       0.00000000       0.00000000       0.00000000       0.00000000       0.00000000       0.00000000
H        2.80615512       1.62013441      12.29121606        2       1.00000000       0.00000000       0.00000000       0.00000000       0.00000000       0.00000000       0.00000000
H        1.40307756       4.05033604      12.29121606        2       1.00000000       0.00000000       0.00000000       0.00000000       0.00000000       0.00000000       0.00000000
H        4.20923268       4.05033604      12.29121606        2       1.00000000       0.00000000       0.00000000       0.00000000       0.00000000       0.00000000       0.00000000
H        0.00000000       0.00000000      14.58243212        1       1.00000000       0.00000000       0.00000000       0.00000000       0.00000000       0.00000000       0.00000000
H        2.80615512       0.00000000      14.58243212        1       1.00000000       0.00000000       0.00000000       0.00000000       0.00000000       0.00000000       0.00000000
H        1.40307756       2.43020162      14.58243212        1       1.00000000       0.00000000       0.00000000       0.00000000       0.00000000       0.00000000       0.00000000
H        4.20923268       2.43020162      14.58243212        1       1.00000000       0.00000000       0.00000000       0.00000000       0.00000000       0.00000000       0.00000000
H        1.39314654       4.05019006      16.81113048        0       1.00000000       0.00000003       0.00000097      -0.00000009      -0.00000016      -0.00000087      -0.00000161
H        5.61231028       1.62013418       7.77136757        0       1.00000000      -0.00000162      -0.00000035      -0.00000110      -0.00000069      -0.00000122       0.00000055
H        2.81608610       1.61998753      16.81113047        0       1.00000000       0.00000065       0.00000011       0.00000044       0.00000106      -0.00000005       0.00000022
H        2.80615478       1.62013433       7.77136724        0       1.00000000      -0.00000166      -0.00000042      -0.00000001       0.00000306       0.00000284       0.00000031
H        4.20923291       4.05033540       7.77136734        0       1.00000000      -0.00000085       0.00000030       0.00000028       0.00000102       0.00000095      -0.00000118
H        1.40307806       4.05033596       7.77136707        0       1.00000000       0.00000016       0.00000024       0.00000003      -0.00000208      -0.00000050      -0.00000016
18
Lattice="5.612310241546866 0.0 0.0 0.0 4.860403243099165 0.0 0.0 0.0 24.582432123328676" Properties=species:S:1:pos:R:3:tags:I:1:masses:R:1:momenta:R:3:forces:R:3 KEmax=23.26679191048647 iter=228441 volume=670.5618179858607 ns_energy=-11.638031574958328 last_walked_iter_clone=227697 energy=-11.638031574959218 stress="0.022594257609840875 -3.736795034307568e-09 3.680577166053263e-09 -3.736795034307568e-09 0.022708688334928562 2.3360046407302235e-08 3.680577166053263e-09 2.3360046407302235e-08 0.012283594545292036" pbc="T T F"
H        1.40307756       0.81006721      10.00000000        3       1.00000000       0.00000000       0.00000000       0.00000000       0.00000000       0.00000000       0.00000000
H        4.20923268       0.81006721      10.00000000        3       1.00000000       0.00000000       0.00000000       0.00000000       0.00000000       0.00000000       0.00000000
H        0.00000000       3.24026883      10.00000000        3       1.00000000       0.00000000       0.00000000       0.00000000       0.00000000       0.00000000       0.00000000
H        2.80615512       3.24026883      10.00000000        3       1.00000000       0.00000000       0.00000000       0.00000000       0.00000000       0.00000000       0.00000000
H        0.00000000       1.62013441      12.29121606        2       1.00000000       0.00000000       0.00000000       0.00000000       0.00000000       0.00000000       0.00000000
H        2.80615512       1.62013441      12.29121606        2       1.00000000       0.00000000       0.00000000       0.00000000       0.00000000       0.00000000       0.00000000
H        1.40307756       4.05033604      12.29121606        2       1.00000000       0.00000000       0.00000000       0.00000000       0.00000000       0.00000000       0.00000000
H        4.20923268       4.05033604      12.29121606        2       1.00000000       0.00000000       0.00000000       0.00000000       0.00000000       0.00000000       0.00000000
H        0.00000000       0.00000000      14.58243212        1       1.00000000       0.00000000       0.00000000       0.00000000       0.00000000       0.00000000       0.00000000
H        2.80615512       0.00000000      14.58243212        1       1.00000000       0.00000000       0.00000000       0.00000000       0.00000000       0.00000000       0.00000000
H        1.40307756       2.43020162      14.58243212        1       1.00000000       0.00000000       0.00000000       0.00000000       0.00000000       0.00000000       0.00000000
H        4.20923268       2.43020162      14.58243212        1       1.00000000       0.00000000       0.00000000       0.00000000       0.00000000       0.00000000       0.00000000
H        1.39314656       4.05018877      16.81113010        0       1.00000000       0.00000006       0.00000028      -0.00000082      -0.00000016      -0.00000087      -0.00000161
H        0.00000007       1.62013397       7.77136718        0       1.00000000       0.00000033      -0.00000018      -0.00000072      -0.00000069      -0.00000122       0.00000055
H        2.81608596       1.61998709      16.81113039        0       1.00000000       0.00000073       0.00000037      -0.00000067       0.00000106      -0.00000005       0.00000022
H        2.80615496       1.62013330       7.77136766        0       1.00000000      -0.00000022      -0.00000015      -0.00000062       0.00000306       0.00000284       0.00000031
H        4.20923283       4.05033463       7.77136715        0       1.00000000      -0.00000040       0.00000073       0.00000203       0.00000102       0.00000095      -0.00000118
H        1.40307735       4.05033553       7.77136705        0       1.00000000      -0.00000042      -0.00000011       0.00000077      -0.00000208      -0.00000050      -0.00000016
18
Lattice="5.612310241546866 0.0 0.0 0.0 4.860403243099165 0.0 0.0 0.0 24.582432123328676" Properties=species:S:1:pos:R:3:tags:I:1:masses:R:1:momenta:R:3:forces:R:3 KEmax=23.26679191048647 iter=228441 volume=670.5618179858607 ns_energy=-11.63803157495812 last_walked_iter_clone=227734 energy=-11.638031574959218 stress="0.022594257609840875 -3.736795034307568e-09 3.680577166053263e-09 -3.736795034307568e-09 0.022708688334928562 2.3360046407302235e-08 3.680577166053263e-09 2.3360046407302235e-08 0.012283594545292036" pbc="T T F"
H        1.40307756       0.81006721      10.00000000        3       1.00000000       0.00000000       0.00000000       0.00000000       0.00000000       0.00000000       0.00000000
H        4.20923268       0.81006721      10.00000000        3       1.00000000       0.00000000       0.00000000       0.00000000       0.00000000       0.00000000       0.00000000
H        0.00000000       3.24026883      10.00000000        3       1.00000000       0.00000000       0.00000000       0.00000000       0.00000000       0.00000000       0.00000000
H        2.80615512       3.24026883      10.00000000        3       1.00000000       0.00000000       0.00000000       0.00000000       0.00000000       0.00000000       0.00000000
H        0.00000000       1.62013441      12.29121606        2       1.00000000       0.00000000       0.00000000       0.00000000       0.00000000       0.00000000       0.00000000
H        2.80615512       1.62013441      12.29121606        2       1.00000000       0.00000000       0.00000000       0.00000000       0.00000000       0.00000000       0.00000000
H        1.40307756       4.05033604      12.29121606        2       1.00000000       0.00000000       0.00000000       0.00000000       0.00000000       0.00000000       0.00000000
H        4.20923268       4.05033604      12.29121606        2       1.00000000       0.00000000       0.00000000       0.00000000       0.00000000       0.00000000       0.00000000
H        0.00000000       0.00000000      14.58243212        1       1.00000000       0.00000000       0.00000000       0.00000000       0.00000000       0.00000000       0.00000000
H        2.80615512       0.00000000      14.58243212        1       1.00000000       0.00000000       0.00000000       0.00000000       0.00000000       0.00000000       0.00000000
H        1.40307756       2.43020162      14.58243212        1       1.00000000       0.00000000       0.00000000       0.00000000       0.00000000       0.00000000       0.00000000
H        4.20923268       2.43020162      14.58243212        1       1.00000000       0.00000000       0.00000000       0.00000000       0.00000000       0.00000000       0.00000000
H        1.39314662       4.05018894      16.81113058        0       1.00000000       0.00000018      -0.00000141      -0.00000112      -0.00000016      -0.00000087      -0.00000161
H        0.00000023       1.62013479       7.77136802        0       1.00000000       0.00000025      -0.00000102      -0.00000009      -0.00000069      -0.00000122       0.00000055
H        2.81608715       1.61998740      16.81113105        0       1.00000000      -0.00000039      -0.00000025       0.00000058       0.00000106      -0.00000005       0.00000022