18
Lattice="5.612310241546866 0.0 0.0 0.0 4.860403243099165 0.0 0.0 0.0 24.582432123328676" Properties=species:S:1:pos:R:3:tags:I:1:masses:R:1:momenta:R:3:forces:R:3 KEmax=23.26679191048647 iter=149333 volume=670.5618179858607 ns_energy=-11.638031573258933 last_walked_iter_clone=149197 energy=-11.638031574030078 stress="0.022594232923563873 1.5040026738091713e-07 -1.025542073568275e-07 1.5040026738091713e-07 0.022708908623510653 2.1953287063339603e-07 -1.025542073568275e-07 2.1953287063339603e-07 0.01228378282916249" pbc="T T F"
H        1.40307756       0.81006721      10.00000000        3       1.00000000       0.00000000       0.00000000       0.00000000       0.00000000       0.00000000       0.00000000
H        4.20923268       0.81006721      10.00000000        3       1.00000000       0.00000000       0.00000000       0.00000000       0.00000000       0.00000000       0.00000000
H        0.00000000       3.24026883      10.00000000        3       1.00000000       0.00000000       0.00000000       0.00000000       0.00000000       0.00000000       0.00000000
H        2.80615512       3.24026883      10.00000000        3       1.00000000       0.00000000       0.00000000       0.00000000       0.00000000       0.00000000       0.00000000
H        0.00000000       1.62013441      12.29121606        2       1.00000000       0.00000000       0.00000000       0.00000000       0.00000000       0.00000000       0.00000000
H        2.80615512       1.62013441      12.29121606        2       1.00000000       0.00000000       0.00000000       0.00000000       0.00000000       0.00000000       0.00000000
H        1.40307756       4.05033604      12.29121606        2       1.00000000       0.00000000       0.00000000       0.00000000       0.00000000       0.00000000       0.00000000
H        4.20923268       4.05033604      12.29121606        2       1.00000000       0.00000000       0.00000000       0.00000000       0.00000000       0.00000000       0.00000000
H        0.00000000       0.00000000      14.58243212        1       1.00000000       0.00000000       0.00000000       0.00000000       0.00000000       0.00000000       0.00000000
H        2.80615512       0.00000000      14.58243212        1       1.00000000       0.00000000       0.00000000       0.00000000       0.00000000       0.00000000       0.00000000
H        1.40307756       2.43020162      14.58243212        1       1.00000000       0.00000000       0.00000000       0.00000000       0.00000000       0.00000000       0.00000000
H        4.20923268       2.43020162      14.58243212        1       1.00000000       0.00000000       0.00000000       0.00000000       0.00000000       0.00000000       0.00000000
H        1.39316833       4.05019717      16.81113526        0       1.00000000       0.00000744      -0.00000424       0.00001613       0.00001288       0.00001203      -0.00001391
H        5.61231313       1.62012873       7.77136774        0       1.00000000       0.00000618      -0.00000587      -0.00000536       0.00001602       0.00002638       0.00001144
H        2.81608677       1.61999226      16.81113280        0       1.00000000      -0.00000274       0.00001715       0.00000530      -0.00000199      -0.00002903      -0.00000352
H        2.80614682       1.62013779       7.77136041        0       1.00000000      -0.00000218       0.00000915       0.00001252       0.00000207       0.00003362      -0.00000767
H        4.20922143       4.05032766       7.77137909        0       1.00000000       0.00000097       0.00000199       0.00000128      -0.00001826      -0.00000834       0.00000895
H        1.40306971       4.05033000       7.77136026        0       1.00000000      -0.00000303      -0.00000397      -0.00001496      -0.00000027      -0.00004399      -0.00000763
18
Lattice="5.612310241546866 0.0 0.0 0.0 4.860403243099165 0.0 0.0 0.0 24.582432123328676" Properties=species:S:1:pos:R:3:tags:I:1:masses:R:1:momenta:R:3:forces:R:3 KEmax=23.26679191048647 iter=149333 volume=670.5618179858607 ns_energy=-11.638031573329922 last_walked_iter_clone=149281 energy=-11.638031574030078 stress="0.022594232923563873 1.5040026738091713e-07 -1.025542073568275e-07 1.5040026738091713e-07 0.022708908623510653 2.1953287063339603e-07 -1.025542073568275e-07 2.1953287063339603e-07 0.01228378282916249" pbc="T T F"
H        1.40307756       0.81006721      10.00000000        3       1.00000000       0.00000000       0.00000000       0.00000000       0.00000000       0.00000000       0.00000000
H        4.20923268       0.81006721      10.00000000        3       1.00000000       0.00000000       0.00000000       0.00000000       0.00000000       0.00000000       0.00000000
H        0.00000000       3.24026883      10.00000000        3       1.00000000       0.00000000       0.00000000       0.00000000       0.00000000       0.00000000       0.00000000
H        2.80615512       3.24026883      10.00000000        3       1.00000000       0.00000000       0.00000000       0.00000000       0.00000000       0.00000000       0.00000000
H        0.00000000       1.62013441      12.29121606        2       1.00000000       0.00000000       0.00000000       0.00000000       0.00000000       0.00000000       0.00000000
H        2.80615512       1.62013441      12.29121606        2       1.00000000       0.00000000       0.00000000       0.00000000       0.00000000       0.00000000       0.00000000
H        1.40307756       4.05033604      12.29121606        2       1.00000000       0.00000000       0.00000000       0.00000000       0.00000000       0.00000000       0.00000000
H        4.20923268       4.05033604      12.29121606        2       1.00000000       0.00000000       0.00000000       0.00000000       0.00000000       0.00000000       0.00000000
H        0.00000000       0.00000000      14.58243212        1       1.00000000       0.00000000       0.00000000       0.00000000       0.00000000       0.00000000       0.00000000
H        2.80615512       0.00000000      14.58243212        1       1.00000000       0.00000000       0.00000000       0.00000000       0.00000000       0.00000000       0.00000000
H        1.40307756       2.43020162      14.58243212        1       1.00000000       0.00000000       0.00000000       0.00000000       0.00000000       0.00000000       0.00000000
H        4.20923268       2.43020162      14.58243212        1       1.00000000       0.00000000       0.00000000       0.00000000       0.00000000       0.00000000       0.00000000
H        1.39314512       4.05020040      16.81113904        0       1.00000000       0.00000448       0.00000059       0.00000010       0.00001288       0.00001203      -0.00001391
H        5.61232281       1.62014628       7.77137358        0       1.00000000       0.00001352       0.00001878      -0.00000181       0.00001602       0.00002638       0.00001144
H        2.81610209       1.61999583      16.81113010        0       1.00000000       0.00000342       0.00001776      -0.00000211      -0.00000199      -0.00002903      -0.00000352
H        2.80616842       1.62013422       7.77136587        0       1.00000000      -0.00000126      -0.00001254      -0.00000107       0.00000207       0.00003362      -0.00000767
H        4.20923593       4.05034158       7.77137545        0       1.00000000      -0.00001850      -0.00000292      -0.00000106      -0.00001826      -0.00000834       0.00000895
H        1.40308138       4.05033785       7.77136352        0       1.00000000       0.00001215      -0.00000548       0.00000982      -0.00000027      -0.00004399      -0.00000763
18
Lattice="5.612310241546866 0.0 0.0 0.0 4.860403243099165 0.0 0.0 0.0 24.582432123328676" Properties=species:S:1:pos:R:3:tags:I:1:masses:R:1:momenta:R:3:forces:R:3 KEmax=23.26679191048647 iter=149333 volume=670.5618179858607 ns_energy=-11.638031573270101 last_walked_iter_clone=149286 energy=-11.638031574030078 stress="0.022594232923563873 1.5040026738091713e-07 -1.025542073568275e-07 1.5040026738091713e-07 0.022708908623510653 2.1953287063339603e-07 -1.025542073568275e-07 2.1953287063339603e-07 0.01228378282916249" pbc="T T F"
H        1.40307756       0.81006721      10.00000000        3       1.00000000       0.00000000       0.00000000       0.00000000       0.00000000       0.00000000       0.00000000
H        4.20923268       0.81006721      10.00000000        3       1.00000000       0.00000000       0.00000000       0.00000000       0.00000000       0.00000000       0.00000000
H        0.00000000       3.24026883      10.00000000        3       1.00000000       0.00000000       0.00000000       0.00000000       0.00000000       0.00000000       0.00000000
H        2.80615512       3.24026883      10.00000000        3       1.00000000       0.00000000       0.00000000       0.00000000       0.00000000       0.00000000       0.00000000
H        0.00000000       1.62013441      12.29121606        2       1.00000000       0.00000000       0.00000000       0.00000000       0.00000000       0.00000000       0.00000000
H        2.80615512       1.62013441      12.29121606        2       1.00000000       0.00000000       0.00000000       0.00000000       0.00000000       0.00000000       0.00000000
H        1.40307756       4.05033604      12.29121606        2       1.00000000       0.00000000       0.00000000       0.00000000       0.00000000       0.00000000       0.00000000
H        4.20923268       4.05033604      12.29121606        2       1.00000000       0.00000000       0.00000000       0.00000000       0.00000000       0.00000000       0.00000000
H        0.00000000       0.00000000      14.58243212        1       1.00000000       0.00000000       0.00000000       0.00000000       0.00000000       0.00000000       0.00000000
H        2.80615512       0.00000000      14.58243212        1       1.00000000       0.00000000       0.00000000       0.00000000       0.00000000       0.00000000       0.00000000
H        1.40307756       2.43020162      14.58243212        1       1.00000000       0.00000000       0.00000000       0.00000000       0.00000000       0.00000000       0.00000000
H        4.20923268       2.43020162      14.58243212        1       1.00000000       0.00000000       0.00000000       0.00000000       0.00000000       0.00000000       0.00000000
H        1.39314273       4.05019276      16.81113552        0       1.00000000      -0.00000110       0.00002283       0.00000333       0.00001288       0.00001203      -0.00001391
H        5.61229101       1.62014241       7.77135589        0       1.00000000      -0.00000567       0.00001287       0.00000557       0.00001602       0.00002638       0.00001144
H        2.81607689       1.61998603      16.81112732        0       1.00000000      -0.00000501       0.00000288       0.00001112      -0.00000199      -0.00002903      -0.00000352
H        2.80614292       1.62014092       7.77135510        0       1.00000000      -0.00000155      -0.00000661       0.00000838       0.00000207       0.00003362      -0.00000767
H        4.20922133       4.05033449       7.77135876        0       1.00000000       0.00000734      -0.00000824      -0.00000170      -0.00001826      -0.00000834       0.00000895
H        1.40306505       4.05034565       7.77136219        0       1.00000000      -0.00000224      -0.00000150       0.00001246      -0.00000027      -0.00004399      -0.00000763
18
Lattice="5.612310241546866 0.0 0.0 0.0 4.860403243099165 0.0 0.0 0.0 24.582432123328676" Properties=species:S:1:pos:R:3:tags:I:1:masses:R:1:momenta:R:3:forces:R:3 KEmax=23.26679191048647 iter=149333 volume=670.5618179858607 ns_energy=-11.63803157328598 last_walked_iter_clone=149260 energy=-11.638031574030078 stress="0.022594232923563873 1.5040026738091713e-07 -1.025542073568275e-07 1.5040026738091713e-07 0.022708908623510653 2.1953287063339603e-07 -1.025542073568275e-07 2.1953287063339603e-07 0.01228378282916249" pbc="T T F"
H        1.40307756       0.81006721      10.00000000        3       1.00000000       0.00000000       0.00000000       0.00000000       0.00000000       0.00000000       0.00000000
H        4.20923268       0.81006721      10.00000000        3       1.00000000       0.00000000       0.00000000       0.00000000       0.00000000       0.00000000       0.00000000
H        0.00000000       3.24026883      10.00000000        3       1.00000000       0.00000000       0.00000000       0.00000000       0.00000000       0.00000000       0.00000000
H        2.80615512       3.24026883      10.00000000        3       1.00000000       0.00000000       0.00000000       0.00000000       0.00000000       0.00000000       0.00000000
H        0.00000000       1.62013441      12.29121606        2       1.00000000       0.00000000       0.00000000       0.00000000       0.00000000       0.00000000       0.00000000
H        2.80615512       1.62013441      12.29121606        2       1.00000000       0.00000000       0.00000000       0.00000000       0.00000000       0.00000000       0.00000000
H        1.40307756       4.05033604      12.29121606        2       1.00000000       0.00000000       0.00000000       0.00000000       0.00000000       0.00000000       0.00000000
H        4.20923268       4.05033604      12.29121606        2       1.00000000       0.00000000       0.00000000       0.00000000       0.00000000       0.00000000       0.00000000
H        0.00000000       0.00000000      14.58243212        1       1.00000000       0.00000000       0.00000000       0.00000000       0.00000000       0.00000000       0.00000000
H        2.80615512       0.00000000      14.58243212        1       1.00000000       0.00000000       0.00000000       0.00000000       0.00000000       0.00000000       0.00000000
H        1.40307756       2.43020162      14.58243212        1       1.00000000       0.00000000       0.00000000       0.00000000       0.00000000       0.00000000       0.00000000
H        4.20923268       2.43020162      14.58243212        1       1.00000000       0.00000000       0.00000000       0.00000000       0.00000000       0.00000000       0.00000000
H        1.39314830       4.05018063      16.81113350        0       1.00000000       0.00000268      -0.00000013      -0.00000421       0.00001288       0.00001203      -0.00001391
H        5.61232503       1.62013850       7.77136813        0       1.00000000       0.00000360      -0.00000798      -0.00001119       0.00001602       0.00002638       0.00001144
H        2.81610297       1.61997348      16.81112950        0       1.00000000      -0.00000606      -0.00000456      -0.00001540      -0.00000199      -0.00002903      -0.00000352
H        2.80616362       1.62013859       7.77138182        0       1.00000000      -0.00000190      -0.00000238      -0.00000245       0.00000207       0.00003362      -0.00000767
H        4.20923187       4.05033900       7.77136669        0       1.00000000       0.00001507      -0.00000641       0.00000524      -0.00001826      -0.00000834       0.00000895
H        1.40307465       4.05033282       7.77135269        0       1.00000000      -0.00000825      -0.00000914      -0.00000724      -0.00000027      -0.00004399      -0.00000763
18
Lattice="5.612310241546866 0.0 0.0 0.0 4.860403243099165 0.0 0.0 0.0 24.582432123328676" Properties=species:S:1:pos:R:3:tags:I:1:masses:R:1:momenta:R:3:forces:R:3 KEmax=23.26679191048647 iter=149333 volume=670.5618179858607 ns_energy=-11.63803157330323 last_walked_iter_clone=149176 energy=-11.638031574030078 stress="0.022594232923563873 1.5040026738091713e-07 -1.025542073568275e-07 1.5040026738091713e-07 0.022708908623510653 2.1953287063339603e-07 -1.025542073568275e-07 2.1953287063339603e-07 0.01228378282916249" pbc="T T F"
H        1.40307756       0.81006721      10.00000000        3       1.00000000       0.00000000       0.00000000       0.00000000       0.00000000       0.00000000       0.00000000
H        4.20923268       0.81006721      10.00000000        3       1.00000000       0.00000000       0.00000000       0.00000000       0.00000000       0.00000000       0.00000000
H        0.00000000       3.24026883      10.00000000        3       1.00000000       0.00000000       0.00000000       0.00000000       0.00000000       0.00000000       0.00000000
H        2.80615512       3.24026883      10.00000000        3       1.00000000       0.00000000       0.00000000       0.00000000       0.00000000       0.00000000       0.00000000
H        0.00000000       1.62013441      12.29121606        2       1.00000000       0.00000000       0.00000000       0.00000000       0.00000000       0.00000000       0.00000000
H        2.80615512       1.62013441      12.29121606        2       1.00000000       0.00000000       0.00000000       0.00000000       0.00000000       0.00000000       0.00000000
H        1.40307756       4.05033604      12.29121606        2       1.00000000       0.00000000       0.00000000       0.00000000       0.00000000       0.00000000       0.00000000
H        4.20923268       4.05033604      12.29121606        2       1.00000000       0.00000000       0.00000000       0.00000000       0.00000000       0.00000000       0.00000000
H        0.00000000       0.00000000      14.58243212        1       1.00000000       0.00000000       0.00000000       0.00000000       0.00000000       0.00000000       0.00000000
H        2.80615512       0.00000000      14.58243212        1       1.00000000       0.00000000       0.00000000       0.00000000       0.00000000       0.00000000       0.00000000
H        1.40307756       2.43020162      14.58243212        1       1.00000000       0.00000000       0.00000000       0.00000000       0.00000000       0.00000000       0.00000000
H        4.20923268       2.43020162      14.58243212        1       1.00000000       0.00000000       0.00000000       0.00000000       0.00000000       0.00000000       0.00000000
H        1.39313067       4.05020184      16.81113529        0       1.00000000       0.00000628      -0.00001166      -0.00000426       0.00001288       0.00001203      -0.00001391
H       -0.00000199       1.62013264       7.77135874        0       1.00000000       0.00000146       0.00001658       0.00000522       0.00001602       0.00002638       0.00001144
H        2.81607875       1.61998862      16.81111834        0       1.00000000      -0.00000608      -0.00000265      -0.00000227      -0.00000199      -0.00002903      -0.00000352
H        2.80615763       1.62013682       7.77137604        0       1.00000000      -0.00000807       0.00001177       0.00001115       0.00000207       0.00003362      -0.00000767
H        4.20922833       4.05034079       7.77137093        0       1.00000000      -0.00000647       0.00000345      -0.00001891      -0.00001826      -0.00000834       0.00000895
H        1.40307374       4.05033553       7.77136317        0       1.00000000       0.00001367      -0.00001341      -0.00001081      -0.00000027      -0.00004399      -0.00000763
18
Lattice="5.612310241546866 0.0 0.0 0.0 4.860403243099165 0.0 0.0 0.0 24.582432123328676" Properties=species:S:1:pos:R:3:tags:I:1:masses:R:1:momenta:R:3:forces:R:3 KEmax=23.26679191048647 iter=149333 volume=670.5618179858607 ns_energy=-11.638031573309508 last_walked_iter_clone=149295 energy=-11.638031574030078 stress="0.022594232923563873 1.5040026738091713e-07 -1.025542073568275e-07 1.5040026738091713e-07 0.022708908623510653 2.1953287063339603e-07 -1.025542073568275e-07 2.1953287063339603e-07 0.01228378282916249" pbc="T T F"
H        1.40307756       0.81006721      10.00000000        3       1.00000000       0.00000000       0.00000000       0.00000000       0.00000000       0.00000000       0.00000000
H        4.20923268       0.81006721      10.00000000        3       1.00000000       0.00000000       0.00000000       0.00000000       0.00000000       0.00000000       0.00000000
H        0.00000000       3.24026883      10.00000000        3       1.00000000       0.00000000       0.00000000       0.00000000       0.00000000       0.00000000       0.00000000
H        2.80615512       3.24026883      10.00000000        3       1.00000000       0.00000000       0.00000000       0.00000000       0.00000000       0.00000000       0.00000000
H        0.00000000       1.62013441      12.29121606        2       1.00000000       0.00000000       0.00000000       0.00000000       0.00000000       0.00000000       0.00000000
H        2.80615512       1.62013441      12.29121606        2       1.00000000       0.00000000       0.00000000       0.00000000       0.00000000       0.00000000       0.00000000
H        1.40307756       4.05033604      12.29121606        2       1.00000000       0.00000000       0.00000000       0.00000000       0.00000000       0.00000000       0.00000000
H        4.20923268       4.05033604      12.29121606        2       1.00000000       0.00000000       0.00000000       0.00000000       0.00000000       0.00000000       0.00000000
H        0.00000000       0.00000000      14.58243212        1       1.00000000       0.00000000       0.00000000       0.00000000       0.00000000       0.00000000       0.00000000
H        2.80615512       0.00000000      14.58243212        1       1.00000000       0.00000000       0.00000000       0.00000000       0.00000000       0.00000000       0.00000000
H        1.40307756       2.43020162      14.58243212        1       1.00000000       0.00000000       0.00000000       0.00000000       0.00000000       0.00000000       0.00000000
H        4.20923268       2.43020162      14.58243212        1       1.00000000       0.00000000       0.00000000       0.00000000       0.00000000       0.00000000       0.00000000
H        1.39314376       4.05019699      16.81111636        0       1.00000000      -0.00001009       0.00000182      -0.00000494       0.00001288       0.00001203      -0.00001391
H        0.00001060       1.62013495       7.77136086        0       1.00000000      -0.00000163       0.00000167      -0.00000516       0.00001602       0.00002638       0.00001144
H        2.81608496       1.61998352      16.81113256        0       1.00000000      -0.00000917      -0.00001007       0.00000411      -0.00000199      -0.00002903      -0.00000352
H        2.80616146       1.62012938       7.77137148        0       1.00000000       0.00000987       0.00001025       0.00001226       0.00000207       0.00003362      -0.00000767
H        4.20924486       4.05033773       7.77136292        0       1.00000000       0.00000184      -0.00000859      -0.00001738      -0.00001826      -0.00000834       0.00000895
H        1.40309759       4.05033824       7.77135874        0       1.00000000      -0.00001028      -0.00001080      -0.00000475      -0.00000027      -0.00004399      -0.00000763
18
Lattice="5.612310241546866 0.0 0.0 0.0 4.860403243099165 0.0 0.0 0.0 24.582432123328676" Properties=species:S:1:pos:R:3:tags:I:1:masses:R:1:momenta:R:3:forces:R:3 KEmax=23.26679191048647 iter=149333 volume=670.5618179858607 ns_energy=-11.638031573360168 last_walked_iter_clone=149134 energy=-11.638031574030078 stress="0.022594232923563873 1.5040026738091713e-07 -1.025542073568275e-07 1.5040026738091713e-07 0.022708908623510653 2.1953287063339603e-07 -1.025542073568275e-07 2.1953287063339603e-07 0.01228378282916249" pbc="T T F"
H        1.40307756       0.81006721      10.00000000        3       1.00000000       0.00000000       0.00000000       0.00000000       0.00000000       0.00000000       0.00000000
H        4.20923268       0.81006721      10.00000000        3       1.00000000       0.00000000       0.00000000       0.00000000       0.00000000       0.00000000       0.00000000
H        0.00000000       3.24026883      10.00000000        3       1.00000000       0.00000000       0.00000000       0.00000000       0.00000000       0.00000000       0.00000000
H        2.80615512       3.24026883      10.00000000        3       1.00000000       0.00000000       0.00000000       0.00000000       0.00000000       0.00000000       0.00000000
H        0.00000000       1.62013441      12.29121606        2       1.00000000       0.00000000       0.00000000       0.00000000       0.00000000       0.00000000       0.00000000
H        2.80615512       1.62013441      12.29121606        2       1.00000000       0.00000000       0.00000000       0.00000000       0.00000000       0.00000000       0.00000000
H        1.40307756       4.05033604      12.29121606        2       1.00000000       0.00000000       0.00000000       0.00000000       0.00000000       0.00000000       0.00000000
H        4.20923268       4.05033604      12.29121606        2       1.00000000       0.00000000       0.00000000       0.00000000       0.00000000       0.00000000       0.00000000
H        0.00000000       0.00000000      14.58243212        1       1.00000000       0.00000000       0.00000000       0.00000000       0.00000000       0.00000000       0.00000000
H        2.80615512       0.00000000      14.58243212        1       1.00000000       0.00000000       0.00000000       0.00000000       0.00000000       0.00000000       0.00000000
H        1.40307756       2.43020162      14.58243212        1       1.00000000       0.00000000       0.00000000       0.00000000       0.00000000       0.00000000       0.00000000
H        4.20923268       2.43020162      14.58243212        1       1.00000000       0.00000000       0.00000000       0.00000000       0.00000000       0.00000000       0.00000000
H        1.39314766       4.05018898      16.81113700        0       1.00000000      -0.00001804       0.00000097       0.00000449       0.00001288       0.00001203      -0.00001391
H        5.61231639       1.62013566       7.77136867        0       1.00000000       0.00001079       0.00000178       0.00000687       0.00001602       0.00002638       0.00001144
H        2.81607862       1.61997475      16.81112843        0       1.00000000       0.00000354       0.00000847       0.00000949      -0.00000199      -0.00002903      -0.00000352
H        2.80615667       1.62014122       7.77136489        0       1.00000000      -0.00000341      -0.00000570       0.00000060       0.00000207       0.00003362      -0.00000767
H        4.20923499       4.05034514       7.77135709        0       1.00000000       0.00001937       0.00001194       0.00000904      -0.00001826      -0.00000834       0.00000895
H        1.40308017       4.05033355       7.77136606        0       1.00000000      -0.00001627      -0.00000921      -0.00001948      -0.00000027      -0.00004399      -0.00000763
18
Lattice="5.612310241546866 0.0 0.0 0.0 4.860403243099165 0.0 0.0 0.0 24.582432123328676" Properties=species:S:1:pos:R:3:tags:I:1:masses:R:1:momenta:R:3:forces:R:3 KEmax=23.26679191048647 iter=149333 volume=670.5618179858607 ns_energy=-11.638031573290322 last_walked_iter_clone=149294 energy=-11.638031574030078 stress="0.022594232923563873 1.5040026738091713e-07 -1.025542073568275e-07 1.5040026738091713e-07 0.022708908623510653 2.1953287063339603e-07 -1.025542073568275e-07 2.1953287063339603e-07 0.01228378282916249" pbc="T T F"
H        1.40307756       0.81006721      10.00000000        3       1.00000000       0.00000000       0.00000000       0.00000000       0.00000000       0.00000000       0.00000000
H        4.20923268       0.81006721      10.00000000        3       1.00000000       0.00000000       0.00000000       0.00000000       0.00000000       0.00000000       0.00000000
H        0.00000000       3.24026883      10.00000000        3       1.00000000       0.00000000       0.00000000       0.00000000       0.00000000       0.00000000       0.00000000
H        2.80615512       3.24026883      10.00000000        3       1.00000000       0.00000000       0.00000000       0.00000000       0.00000000       0.00000000       0.00000000
H        0.00000000       1.62013441      12.29121606        2       1.00000000       0.00000000       0.00000000       0.00000000       0.00000000       0.00000000       0.00000000
H        2.80615512       1.62013441      12.29121606        2       1.00000000       0.00000000       0.00000000       0.00000000       0.00000000       0.00000000       0.00000000
H        1.40307756       4.05033604      12.29121606        2       1.00000000       0.00000000       0.00000000       0.00000000       0.00000000       0.00000000       0.00000000
H        4.20923268       4.05033604      12.29121606        2       1.00000000       0.00000000       0.00000000       0.00000000       0.00000000       0.00000000       0.00000000
H        0.00000000       0.00000000      14.58243212        1       1.00000000       0.00000000       0.00000000       0.00000000       0.00000000       0.00000000       0.00000000
H        2.80615512       0.00000000      14.58243212        1       1.00000000       0.00000000       0.00000000       0.00000000       0.00000000       0.00000000       0.00000000
H        1.40307756       2.43020162      14.58243212        1       1.00000000       0.00000000       0.00000000       0.00000000       0.00000000       0.00000000       0.00000000
H        4.20923268       2.43020162      14.58243212        1       1.00000000       0.00000000       0.00000000       0.00000000       0.00000000       0.00000000       0.00000000
H        1.39314725       4.05018000      16.81113254        0       1.00000000       0.00001426      -0.00000015       0.00001279       0.00001288       0.00001203      -0.00001391
H        0.00000743       1.62013942       7.77136648        0       1.00000000       0.00000132      -0.00000214      -0.00000406       0.00001602       0.00002638       0.00001144
H        2.81610336       1.61998964      16.81112822        0       1.00000000       0.00000035      -0.00002006      -0.00001025      -0.00000199      -0.00002903      -0.00000352