18
Lattice="5.612310241546866 0.0 0.0 0.0 4.860403243099165 0.0 0.0 0.0 24.582432123328676" Properties=species:S:1:pos:R:3:tags:I:1:masses:R:1:momenta:R:3:forces:R:3 KEmax=23.26679191048647 iter=239999 volume=670.5618179858607 ns_energy=-11.638031574958912 last_walked_iter_clone=238951 energy=-11.63802746808672 stress="0.022594164732535 -5.006004425773776e-08 -4.53977892888145e-09 -5.006004425773776e-08 0.02270845333988124 -1.922402115737574e-08 -4.53977892888145e-09 -1.922402115737574e-08 0.012283514364326906" pbc="T T F"
H        1.40307756       0.81006721      10.00000000        3       1.00000000       0.00000000       0.00000000       0.00000000       0.00000000       0.00000000       0.00000000
H        4.20923268       0.81006721      10.00000000        3       1.00000000       0.00000000       0.00000000       0.00000000       0.00000000       0.00000000       0.00000000
H        0.00000000       3.24026883      10.00000000        3       1.00000000       0.00000000       0.00000000       0.00000000       0.00000000       0.00000000       0.00000000
H        2.80615512       3.24026883      10.00000000        3       1.00000000       0.00000000       0.00000000       0.00000000       0.00000000       0.00000000       0.00000000
H        0.00000000       1.62013441      12.29121606        2       1.00000000       0.00000000       0.00000000       0.00000000       0.00000000       0.00000000       0.00000000
H        2.80615512       1.62013441      12.29121606        2       1.00000000       0.00000000       0.00000000       0.00000000       0.00000000       0.00000000       0.00000000
H        1.40307756       4.05033604      12.29121606        2       1.00000000       0.00000000       0.00000000       0.00000000       0.00000000       0.00000000       0.00000000
H        4.20923268       4.05033604      12.29121606        2       1.00000000       0.00000000       0.00000000       0.00000000       0.00000000       0.00000000       0.00000000
H        0.00000000       0.00000000      14.58243212        1       1.00000000       0.00000000       0.00000000       0.00000000       0.00000000       0.00000000       0.00000000
H        2.80615512       0.00000000      14.58243212        1       1.00000000       0.00000000       0.00000000       0.00000000       0.00000000       0.00000000       0.00000000
H        1.40307756       2.43020162      14.58243212        1       1.00000000       0.00000000       0.00000000       0.00000000       0.00000000       0.00000000       0.00000000
H        4.20923268       2.43020162      14.58243212        1       1.00000000       0.00000000       0.00000000       0.00000000       0.00000000       0.00000000       0.00000000
H        1.39314724       4.05018884      16.81113025        0       1.00000000      -0.00000056       0.00000026       0.00000100       0.00000099      -0.00001031       0.00000409
H       -0.00000019       1.62013426       7.77136716        0       1.00000000       0.00000049      -0.00000016       0.00000099      -0.00093398      -0.00335622      -0.00000300
H        2.81608651       1.61998742      16.81113102        0       1.00000000       0.00000016       0.00000016      -0.00000147       0.00000027       0.00001153      -0.00000076
H        2.80615483       1.62013443       7.77136719        0       1.00000000      -0.00000073       0.00000059       0.00000086       0.00093375      -0.00339072       0.00000033
H        4.20923273       4.05033593       7.77136688        0       1.00000000       0.00000027       0.00000083       0.00000024       0.00092554       0.00336874      -0.00000126
H        1.40307718       4.05033571       7.77136772        0       1.00000000      -0.00000006      -0.00000035      -0.00000157      -0.00092455       0.00337772      -0.00000093
18
Lattice="5.612310241546866 0.0 0.0 0.0 4.860403243099165 0.0 0.0 0.0 24.582432123328676" Properties=species:S:1:pos:R:3:tags:I:1:masses:R:1:momenta:R:3:forces:R:3 KEmax=23.26679191048647 iter=239999 volume=670.5618179858607 ns_energy=-11.638031574959149 last_walked_iter_clone=238284 energy=-11.63802746808672 stress="0.022594164732535 -5.006004425773776e-08 -4.53977892888145e-09 -5.006004425773776e-08 0.02270845333988124 -1.922402115737574e-08 -4.53977892888145e-09 -1.922402115737574e-08 0.012283514364326906" pbc="T T F"
H        1.40307756       0.81006721      10.00000000        3       1.00000000       0.00000000       0.00000000       0.00000000       0.00000000       0.00000000       0.00000000
H        4.20923268       0.81006721      10.00000000        3       1.00000000       0.00000000       0.00000000       0.00000000       0.00000000       0.00000000       0.00000000
H        0.00000000       3.24026883      10.00000000        3       1.00000000       0.00000000       0.00000000       0.00000000       0.00000000       0.00000000       0.00000000
H        2.80615512       3.24026883      10.00000000        3       1.00000000       0.00000000       0.00000000       0.00000000       0.00000000       0.00000000       0.00000000
H        0.00000000       1.62013441      12.29121606        2       1.00000000       0.00000000       0.00000000       0.00000000       0.00000000       0.00000000       0.00000000
H        2.80615512       1.62013441      12.29121606        2       1.00000000       0.00000000       0.00000000       0.00000000       0.00000000       0.00000000       0.00000000
H        1.40307756       4.05033604      12.29121606        2       1.00000000       0.00000000       0.00000000       0.00000000       0.00000000       0.00000000       0.00000000
H        4.20923268       4.05033604      12.29121606        2       1.00000000       0.00000000       0.00000000       0.00000000       0.00000000       0.00000000       0.00000000
H        0.00000000       0.00000000      14.58243212        1       1.00000000       0.00000000       0.00000000       0.00000000       0.00000000       0.00000000       0.00000000
H        2.80615512       0.00000000      14.58243212        1       1.00000000       0.00000000       0.00000000       0.00000000       0.00000000       0.00000000       0.00000000
H        1.40307756       2.43020162      14.58243212        1       1.00000000       0.00000000       0.00000000       0.00000000       0.00000000       0.00000000       0.00000000
H        4.20923268       2.43020162      14.58243212        1       1.00000000       0.00000000       0.00000000       0.00000000       0.00000000       0.00000000       0.00000000
H        1.39314722       4.05018912      16.81113038        0       1.00000000       0.00000011      -0.00000121      -0.00000072       0.00000099      -0.00001031       0.00000409
H        5.61230954       1.62013448       7.77136749        0       1.00000000       0.00000013       0.00000045      -0.00000068      -0.00093398      -0.00335622      -0.00000300
H        2.81608613       1.61998718      16.81113045        0       1.00000000      -0.00000067      -0.00000064      -0.00000075       0.00000027       0.00001153      -0.00000076
H        2.80615438       1.62013487       7.77136729        0       1.00000000      -0.00000059       0.00000066       0.00000028       0.00093375      -0.00339072       0.00000033
H        4.20923230       4.05033637       7.77136751        0       1.00000000      -0.00000019      -0.00000012      -0.00000016       0.00092554       0.00336874      -0.00000126
H        1.40307756       4.05033584       7.77136709        0       1.00000000       0.00000099      -0.00000039       0.00000166      -0.00092455       0.00337772      -0.00000093
18
Lattice="5.612310241546866 0.0 0.0 0.0 4.860403243099165 0.0 0.0 0.0 24.582432123328676" Properties=species:S:1:pos:R:3:tags:I:1:masses:R:1:momenta:R:3:forces:R:3 KEmax=23.26679191048647 iter=239999 volume=670.5618179858607 ns_energy=-11.638031574958971 last_walked_iter_clone=238766 energy=-11.63802746808672 stress="0.022594164732535 -5.006004425773776e-08 -4.53977892888145e-09 -5.006004425773776e-08 0.02270845333988124 -1.922402115737574e-08 -4.53977892888145e-09 -1.922402115737574e-08 0.012283514364326906" pbc="T T F"
H        1.40307756       0.81006721      10.00000000        3       1.00000000       0.00000000       0.00000000       0.00000000       0.00000000       0.00000000       0.00000000
H        4.20923268       0.81006721      10.00000000        3       1.00000000       0.00000000       0.00000000       0.00000000       0.00000000       0.00000000       0.00000000
H        0.00000000       3.24026883      10.00000000        3       1.00000000       0.00000000       0.00000000       0.00000000       0.00000000       0.00000000       0.00000000
H        2.80615512       3.24026883      10.00000000        3       1.00000000       0.00000000       0.00000000       0.00000000       0.00000000       0.00000000       0.00000000
H        0.00000000       1.62013441      12.29121606        2       1.00000000       0.00000000       0.00000000       0.00000000       0.00000000       0.00000000       0.00000000
H        2.80615512       1.62013441      12.29121606        2       1.00000000       0.00000000       0.00000000       0.00000000       0.00000000       0.00000000       0.00000000
H        1.40307756       4.05033604      12.29121606        2       1.00000000       0.00000000       0.00000000       0.00000000       0.00000000       0.00000000       0.00000000
H        4.20923268       4.05033604      12.29121606        2       1.00000000       0.00000000       0.00000000       0.00000000       0.00000000       0.00000000       0.00000000
H        0.00000000       0.00000000      14.58243212        1       1.00000000       0.00000000       0.00000000       0.00000000       0.00000000       0.00000000       0.00000000
H        2.80615512       0.00000000      14.58243212        1       1.00000000       0.00000000       0.00000000       0.00000000       0.00000000       0.00000000       0.00000000
H        1.40307756       2.43020162      14.58243212        1       1.00000000       0.00000000       0.00000000       0.00000000       0.00000000       0.00000000       0.00000000
H        4.20923268       2.43020162      14.58243212        1       1.00000000       0.00000000       0.00000000       0.00000000       0.00000000       0.00000000       0.00000000
H        1.39314740       4.05018899      16.81113043        0       1.00000000      -0.00000040       0.00000009      -0.00000097       0.00000099      -0.00001031       0.00000409
H        5.61230962       1.62013481       7.77136771        0       1.00000000      -0.00000163       0.00000004       0.00000046      -0.00093398      -0.00335622      -0.00000300
H        2.81608591       1.61998735      16.81113040        0       1.00000000       0.00000007       0.00000006       0.00000095       0.00000027       0.00001153      -0.00000076
H        2.80615484       1.62013489       7.77136697        0       1.00000000       0.00000010       0.00000034       0.00000056       0.00093375      -0.00339072       0.00000033
H        4.20923297       4.05033618       7.77136695        0       1.00000000      -0.00000028      -0.00000006       0.00000104       0.00092554       0.00336874      -0.00000126
H        1.40307784       4.05033653       7.77136711        0       1.00000000       0.00000110      -0.00000018       0.00000109      -0.00092455       0.00337772      -0.00000093
18
Lattice="5.612310241546866 0.0 0.0 0.0 4.860403243099165 0.0 0.0 0.0 24.582432123328676" Properties=species:S:1:pos:R:3:tags:I:1:masses:R:1:momenta:R:3:forces:R:3 KEmax=23.26679191048647 iter=239999 volume=670.5618179858607 ns_energy=-11.638031574958953 last_walked_iter_clone=239030 energy=-11.63802746808672 stress="0.022594164732535 -5.006004425773776e-08 -4.53977892888145e-09 -5.006004425773776e-08 0.02270845333988124 -1.922402115737574e-08 -4.53977892888145e-09 -1.922402115737574e-08 0.012283514364326906" pbc="T T F"
H        1.40307756       0.81006721      10.00000000        3       1.00000000       0.00000000       0.00000000       0.00000000       0.00000000       0.00000000       0.00000000
H        4.20923268       0.81006721      10.00000000        3       1.00000000       0.00000000       0.00000000       0.00000000       0.00000000       0.00000000       0.00000000
H        0.00000000       3.24026883      10.00000000        3       1.00000000       0.00000000       0.00000000       0.00000000       0.00000000       0.00000000       0.00000000
H        2.80615512       3.24026883      10.00000000        3       1.00000000       0.00000000       0.00000000       0.00000000       0.00000000       0.00000000       0.00000000
H        0.00000000       1.62013441      12.29121606        2       1.00000000       0.00000000       0.00000000       0.00000000       0.00000000       0.00000000       0.00000000
H        2.80615512       1.62013441      12.29121606        2       1.00000000       0.00000000       0.00000000       0.00000000       0.00000000       0.00000000       0.00000000
H        1.40307756       4.05033604      12.29121606        2       1.00000000       0.00000000       0.00000000       0.00000000       0.00000000       0.00000000       0.00000000
H        4.20923268       4.05033604      12.29121606        2       1.00000000       0.00000000       0.00000000       0.00000000       0.00000000       0.00000000       0.00000000
H        0.00000000       0.00000000      14.58243212        1       1.00000000       0.00000000       0.00000000       0.00000000       0.00000000       0.00000000       0.00000000
H        2.80615512       0.00000000      14.58243212        1       1.00000000       0.00000000       0.00000000       0.00000000       0.00000000       0.00000000       0.00000000
H        1.40307756       2.43020162      14.58243212        1       1.00000000       0.00000000       0.00000000       0.00000000       0.00000000       0.00000000       0.00000000
H        4.20923268       2.43020162      14.58243212        1       1.00000000       0.00000000       0.00000000       0.00000000       0.00000000       0.00000000       0.00000000
H        1.39314675       4.05018874      16.81113024        0       1.00000000      -0.00000040       0.00000002       0.00000055       0.00000099      -0.00001031       0.00000409
H        5.61231117       1.62013501       7.77136753        0       1.00000000      -0.00000065      -0.00000067       0.00000109      -0.00093398      -0.00335622      -0.00000300
H        2.81608535       1.61998698      16.81113107        0       1.00000000       0.00000022       0.00000011      -0.00000033       0.00000027       0.00001153      -0.00000076
H        2.80615589       1.62013471       7.77136695        0       1.00000000      -0.00000025      -0.00000016       0.00000014       0.00093375      -0.00339072       0.00000033
H        4.20923313       4.05033646       7.77136728        0       1.00000000       0.00000142      -0.00000102       0.00000001       0.00092554       0.00336874      -0.00000126
H        1.40307875       4.05033665       7.77136755        0       1.00000000       0.00000018       0.00000069       0.00000017      -0.00092455       0.00337772      -0.00000093
18
Lattice="5.612310241546866 0.0 0.0 0.0 4.860403243099165 0.0 0.0 0.0 24.582432123328676" Properties=species:S:1:pos:R:3:tags:I:1:masses:R:1:momenta:R:3:forces:R:3 KEmax=23.26679191048647 iter=239999 volume=670.5618179858607 ns_energy=-11.6380315749591 last_walked_iter_clone=238919 energy=-11.63802746808672 stress="0.022594164732535 -5.006004425773776e-08 -4.53977892888145e-09 -5.006004425773776e-08 0.02270845333988124 -1.922402115737574e-08 -4.53977892888145e-09 -1.922402115737574e-08 0.012283514364326906" pbc="T T F"
H        1.40307756       0.81006721      10.00000000        3       1.00000000       0.00000000       0.00000000       0.00000000       0.00000000       0.00000000       0.00000000
H        4.20923268       0.81006721      10.00000000        3       1.00000000       0.00000000       0.00000000       0.00000000       0.00000000       0.00000000       0.00000000
H        0.00000000       3.24026883      10.00000000        3       1.00000000       0.00000000       0.00000000       0.00000000       0.00000000       0.00000000       0.00000000
H        2.80615512       3.24026883      10.00000000        3       1.00000000       0.00000000       0.00000000       0.00000000       0.00000000       0.00000000       0.00000000
H        0.00000000       1.62013441      12.29121606        2       1.00000000       0.00000000       0.00000000       0.00000000       0.00000000       0.00000000       0.00000000
H        2.80615512       1.62013441      12.29121606        2       1.00000000       0.00000000       0.00000000       0.00000000       0.00000000       0.00000000       0.00000000
H        1.40307756       4.05033604      12.29121606        2       1.00000000       0.00000000       0.00000000       0.00000000       0.00000000       0.00000000       0.00000000
H        4.20923268       4.05033604      12.29121606        2       1.00000000       0.00000000       0.00000000       0.00000000       0.00000000       0.00000000       0.00000000
H        0.00000000       0.00000000      14.58243212        1       1.00000000       0.00000000       0.00000000       0.00000000       0.00000000       0.00000000       0.00000000
H        2.80615512       0.00000000      14.58243212        1       1.00000000       0.00000000       0.00000000       0.00000000       0.00000000       0.00000000       0.00000000
H        1.40307756       2.43020162      14.58243212        1       1.00000000       0.00000000       0.00000000       0.00000000       0.00000000       0.00000000       0.00000000
H        4.20923268       2.43020162      14.58243212        1       1.00000000       0.00000000       0.00000000       0.00000000       0.00000000       0.00000000       0.00000000
H        1.39314659       4.05018857      16.81113051        0       1.00000000       0.00000021      -0.00000064      -0.00000104       0.00000099      -0.00001031       0.00000409
H        0.00000007       1.62013424       7.77136693        0       1.00000000      -0.00000044      -0.00000092      -0.00000074      -0.00093398      -0.00335622      -0.00000300
H        2.81608563       1.61998768      16.81113054        0       1.00000000       0.00000079       0.00000020      -0.00000080       0.00000027       0.00001153      -0.00000076
H        2.80615519       1.62013405       7.77136696        0       1.00000000       0.00000031       0.00000102       0.00000053       0.00093375      -0.00339072       0.00000033
H        4.20923230       4.05033606       7.77136721        0       1.00000000      -0.00000179       0.00000001       0.00000013       0.00092554       0.00336874      -0.00000126
H        1.40307718       4.05033588       7.77136660        0       1.00000000      -0.00000060      -0.00000027      -0.00000045      -0.00092455       0.00337772      -0.00000093
18
Lattice="5.612310241546866 0.0 0.0 0.0 4.860403243099165 0.0 0.0 0.0 24.582432123328676" Properties=species:S:1:pos:R:3:tags:I:1:masses:R:1:momenta:R:3:forces:R:3 KEmax=23.26679191048647 iter=239999 volume=670.5618179858607 ns_energy=-11.638031574958923 last_walked_iter_clone=235133 energy=-11.63802746808672 stress="0.022594164732535 -5.006004425773776e-08 -4.53977892888145e-09 -5.006004425773776e-08 0.02270845333988124 -1.922402115737574e-08 -4.53977892888145e-09 -1.922402115737574e-08 0.012283514364326906" pbc="T T F"
H        1.40307756       0.81006721      10.00000000        3       1.00000000       0.00000000       0.00000000       0.00000000       0.00000000       0.00000000       0.00000000
H        4.20923268       0.81006721      10.00000000        3       1.00000000       0.00000000       0.00000000       0.00000000       0.00000000       0.00000000       0.00000000
H        0.00000000       3.24026883      10.00000000        3       1.00000000       0.00000000       0.00000000       0.00000000       0.00000000       0.00000000       0.00000000
H        2.80615512       3.24026883      10.00000000        3       1.00000000       0.00000000       0.00000000       0.00000000       0.00000000       0.00000000       0.00000000
H        0.00000000       1.62013441      12.29121606        2       1.00000000       0.00000000       0.00000000       0.00000000       0.00000000       0.00000000       0.00000000
H        2.80615512       1.62013441      12.29121606        2       1.00000000       0.00000000       0.00000000       0.00000000       0.00000000       0.00000000       0.00000000
H        1.40307756       4.05033604      12.29121606        2       1.00000000       0.00000000       0.00000000       0.00000000       0.00000000       0.00000000       0.00000000
H        4.20923268       4.05033604      12.29121606        2       1.00000000       0.00000000       0.00000000       0.00000000       0.00000000       0.00000000       0.00000000
H        0.00000000       0.00000000      14.58243212        1       1.00000000       0.00000000       0.00000000       0.00000000       0.00000000       0.00000000       0.00000000
H        2.80615512       0.00000000      14.58243212        1       1.00000000       0.00000000       0.00000000       0.00000000       0.00000000       0.00000000       0.00000000
H        1.40307756       2.43020162      14.58243212        1       1.00000000       0.00000000       0.00000000       0.00000000       0.00000000       0.00000000       0.00000000
H        4.20923268       2.43020162      14.58243212        1       1.00000000       0.00000000       0.00000000       0.00000000       0.00000000       0.00000000       0.00000000
H        1.39314682       4.05018881      16.81113040        0       1.00000000       0.00000042      -0.00000070       0.00000038       0.00000099      -0.00001031       0.00000409
H       -0.00000053       1.62013415       7.77136737        0       1.00000000      -0.00000015      -0.00000065      -0.00000003      -0.00093398      -0.00335622      -0.00000300
H        2.81608708       1.61998729      16.81113059        0       1.00000000       0.00000065       0.00000070       0.00000058       0.00000027       0.00001153      -0.00000076
H        2.80615493       1.62013398       7.77136751        0       1.00000000       0.00000107       0.00000045       0.00000004       0.00093375      -0.00339072       0.00000033
H        4.20923249       4.05033570       7.77136692        0       1.00000000      -0.00000000       0.00000040       0.00000085       0.00092554       0.00336874      -0.00000126
H        1.40307720       4.05033554       7.77136742        0       1.00000000       0.00000053       0.00000185      -0.00000159      -0.00092455       0.00337772      -0.00000093
18
Lattice="5.612310241546866 0.0 0.0 0.0 4.860403243099165 0.0 0.0 0.0 24.582432123328676" Properties=species:S:1:pos:R:3:tags:I:1:masses:R:1:momenta:R:3:forces:R:3 KEmax=23.26679191048647 iter=239999 volume=670.5618179858607 ns_energy=-11.638031574959045 last_walked_iter_clone=235932 energy=-11.63802746808672 stress="0.022594164732535 -5.006004425773776e-08 -4.53977892888145e-09 -5.006004425773776e-08 0.02270845333988124 -1.922402115737574e-08 -4.53977892888145e-09 -1.922402115737574e-08 0.012283514364326906" pbc="T T F"
H        1.40307756       0.81006721      10.00000000        3       1.00000000       0.00000000       0.00000000       0.00000000       0.00000000       0.00000000       0.00000000
H        4.20923268       0.81006721      10.00000000        3       1.00000000       0.00000000       0.00000000       0.00000000       0.00000000       0.00000000       0.00000000
H        0.00000000       3.24026883      10.00000000        3       1.00000000       0.00000000       0.00000000       0.00000000       0.00000000       0.00000000       0.00000000
H        2.80615512       3.24026883      10.00000000        3       1.00000000       0.00000000       0.00000000       0.00000000       0.00000000       0.00000000       0.00000000
H        0.00000000       1.62013441      12.29121606        2       1.00000000       0.00000000       0.00000000       0.00000000       0.00000000       0.00000000       0.00000000
H        2.80615512       1.62013441      12.29121606        2       1.00000000       0.00000000       0.00000000       0.00000000       0.00000000       0.00000000       0.00000000
H        1.40307756       4.05033604      12.29121606        2       1.00000000       0.00000000       0.00000000       0.00000000       0.00000000       0.00000000       0.00000000
H        4.20923268       4.05033604      12.29121606        2       1.00000000       0.00000000       0.00000000       0.00000000       0.00000000       0.00000000       0.00000000
H        0.00000000       0.00000000      14.58243212        1       1.00000000       0.00000000       0.00000000       0.00000000       0.00000000       0.00000000       0.00000000
H        2.80615512       0.00000000      14.58243212        1       1.00000000       0.00000000       0.00000000       0.00000000       0.00000000       0.00000000       0.00000000
H        1.40307756       2.43020162      14.58243212        1       1.00000000       0.00000000       0.00000000       0.00000000       0.00000000       0.00000000       0.00000000
H        4.20923268       2.43020162      14.58243212        1       1.00000000       0.00000000       0.00000000       0.00000000       0.00000000       0.00000000       0.00000000
H        1.39314662       4.05018855      16.81113099        0       1.00000000      -0.00000006       0.00000100       0.00000084       0.00000099      -0.00001031       0.00000409
H       -0.00000017       1.62013367       7.77136688        0       1.00000000      -0.00000056       0.00000009      -0.00000119      -0.00093398      -0.00335622      -0.00000300
H        2.81608576       1.61998762      16.81113060        0       1.00000000       0.00000079       0.00000057       0.00000069       0.00000027       0.00001153      -0.00000076
H        2.80615494       1.62013448       7.77136734        0       1.00000000       0.00000024      -0.00000048      -0.00000018       0.00093375      -0.00339072       0.00000033
H        4.20923198       4.05033633       7.77136707        0       1.00000000       0.00000021      -0.00000066       0.00000070       0.00092554       0.00336874      -0.00000126
H        1.40307733       4.05033592       7.77136672        0       1.00000000       0.00000013       0.00000087       0.00000053      -0.00092455       0.00337772      -0.00000093
18
Lattice="5.612310241546866 0.0 0.0 0.0 4.860403243099165 0.0 0.0 0.0 24.582432123328676" Properties=species:S:1:pos:R:3:tags:I:1:masses:R:1:momenta:R:3:forces:R:3 KEmax=23.26679191048647 iter=239999 volume=670.5618179858607 ns_energy=-11.638031574959008 last_walked_iter_clone=235131 energy=-11.63802746808672 stress="0.022594164732535 -5.006004425773776e-08 -4.53977892888145e-09 -5.006004425773776e-08 0.02270845333988124 -1.922402115737574e-08 -4.53977892888145e-09 -1.922402115737574e-08 0.012283514364326906" pbc="T T F"
H        1.40307756       0.81006721      10.00000000        3       1.00000000       0.00000000       0.00000000       0.00000000       0.00000000       0.00000000       0.00000000
H        4.20923268       0.81006721      10.00000000        3       1.00000000       0.00000000       0.00000000       0.00000000       0.00000000       0.00000000       0.00000000
H        0.00000000       3.24026883      10.00000000        3       1.00000000       0.00000000       0.00000000       0.00000000       0.00000000       0.00000000       0.00000000
H        2.80615512       3.24026883      10.00000000        3       1.00000000       0.00000000       0.00000000       0.00000000       0.00000000       0.00000000       0.00000000
H        0.00000000       1.62013441      12.29121606        2       1.00000000       0.00000000       0.00000000       0.00000000       0.00000000       0.00000000       0.00000000
H        2.80615512       1.62013441      12.29121606        2       1.00000000       0.00000000       0.00000000       0.00000000       0.00000000       0.00000000       0.00000000
H        1.40307756       4.05033604      12.29121606        2       1.00000000       0.00000000       0.00000000       0.00000000       0.00000000       0.00000000       0.00000000
H        4.20923268       4.05033604      12.29121606        2       1.00000000       0.00000000       0.00000000       0.00000000       0.00000000       0.00000000       0.00000000
H        0.00000000       0.00000000      14.58243212        1       1.00000000       0.00000000       0.00000000       0.00000000       0.00000000       0.00000000       0.00000000
H        2.80615512       0.00000000      14.58243212        1       1.00000000       0.00000000       0.00000000       0.00000000       0.00000000       0.00000000       0.00000000
H        1.40307756       2.43020162      14.58243212        1       1.00000000       0.00000000       0.00000000       0.00000000       0.00000000       0.00000000       0.00000000
H        4.20923268       2.43020162      14.58243212        1       1.00000000       0.00000000       0.00000000       0.00000000       0.00000000       0.00000000       0.00000000
H        1.39314683       4.05018879      16.81113040        0       1.00000000       0.00000081       0.00000088       0.00000043       0.00000099      -0.00001031       0.00000409
H       -0.00000048       1.62013412       7.77136736        0       1.00000000       0.00000089       0.00000126      -0.00000000      -0.00093398      -0.00335622      -0.00000300
H        2.81608712       1.61998730      16.81113058        0       1.00000000      -0.00000053       0.00000076      -0.00000076       0.00000027       0.00001153      -0.00000076