18
Lattice="5.612310241546866 0.0 0.0 0.0 4.860403243099165 0.0 0.0 0.0 44.58243212332868" Properties=species:S:1:pos:R:3:tags:I:1:masses:R:1:momenta:R:3:forces:R:3 KEmax=23.26679191048647 iter=163007 volume=1216.1236359717223 ns_energy=-11.638031574700578 last_walked_iter_clone=162738 energy=-11.638031574870471 stress="0.022584290117168372 1.5765887796408416e-08 -1.625160850872732e-08 1.5765887796408416e-08 0.022698603351725 -5.5589222795808425e-08 -1.625160850872732e-08 -5.5589222795808425e-08 0.012278116218613553" pbc="T T F"
H        1.40307756       0.81006721      20.00000000        3       1.00000000       0.00000000       0.00000000       0.00000000       0.00000000       0.00000000       0.00000000
H        4.20923268       0.81006721      20.00000000        3       1.00000000       0.00000000       0.00000000       0.00000000       0.00000000       0.00000000       0.00000000
H        0.00000000       3.24026883      20.00000000        3       1.00000000       0.00000000       0.00000000       0.00000000       0.00000000       0.00000000       0.00000000
H        2.80615512       3.24026883      20.00000000        3       1.00000000       0.00000000       0.00000000       0.00000000       0.00000000       0.00000000       0.00000000
H        0.00000000       1.62013441      22.29121606        2       1.00000000       0.00000000       0.00000000       0.00000000       0.00000000       0.00000000       0.00000000
H        2.80615512       1.62013441      22.29121606        2       1.00000000       0.00000000       0.00000000       0.00000000       0.00000000       0.00000000       0.00000000
H        1.40307756       4.05033604      22.29121606        2       1.00000000       0.00000000       0.00000000       0.00000000       0.00000000       0.00000000       0.00000000
H        4.20923268       4.05033604      22.29121606        2       1.00000000       0.00000000       0.00000000       0.00000000       0.00000000       0.00000000       0.00000000
H        0.00000000       0.00000000      24.58243212        1       1.00000000       0.00000000       0.00000000       0.00000000       0.00000000       0.00000000       0.00000000
H        2.80615512       0.00000000      24.58243212        1       1.00000000       0.00000000       0.00000000       0.00000000       0.00000000       0.00000000       0.00000000
H        1.40307756       2.43020162      24.58243212        1       1.00000000       0.00000000       0.00000000       0.00000000       0.00000000       0.00000000       0.00000000
H        4.20923268       2.43020162      24.58243212        1       1.00000000       0.00000000       0.00000000       0.00000000       0.00000000       0.00000000       0.00000000
H        4.21916562       4.05018762      26.81113392        0       1.00000000      -0.00000055      -0.00000237       0.00001090      -0.00000045      -0.00000089      -0.00000106
H        4.20923524       4.05033996      17.77136397        0       1.00000000       0.00000032       0.00000513       0.00000002       0.00000503      -0.00001843      -0.00000151
H        2.79621744       1.61998721      26.81113112        0       1.00000000       0.00000175       0.00000108       0.00000131       0.00000198       0.00000226       0.00000086
H        2.80615739       1.62013837      17.77136280        0       1.00000000       0.00000693      -0.00000443      -0.00000036      -0.00000312       0.00001863       0.00000540
H        5.61230860       1.62013971      17.77136886        0       1.00000000      -0.00000307      -0.00000042      -0.00000219       0.00001064       0.00000640       0.00000287
H        1.40307747       4.05033723      17.77136299        0       1.00000000      -0.00000457      -0.00000170       0.00000555      -0.00001282      -0.00001095      -0.00001045
18
Lattice="5.612310241546866 0.0 0.0 0.0 4.860403243099165 0.0 0.0 0.0 44.58243212332868" Properties=species:S:1:pos:R:3:tags:I:1:masses:R:1:momenta:R:3:forces:R:3 KEmax=23.26679191048647 iter=163007 volume=1216.1236359717223 ns_energy=-11.638031574721218 last_walked_iter_clone=162903 energy=-11.638031574870471 stress="0.022584290117168372 1.5765887796408416e-08 -1.625160850872732e-08 1.5765887796408416e-08 0.022698603351725 -5.5589222795808425e-08 -1.625160850872732e-08 -5.5589222795808425e-08 0.012278116218613553" pbc="T T F"
H        1.40307756       0.81006721      20.00000000        3       1.00000000       0.00000000       0.00000000       0.00000000       0.00000000       0.00000000       0.00000000
H        4.20923268       0.81006721      20.00000000        3       1.00000000       0.00000000       0.00000000       0.00000000       0.00000000       0.00000000       0.00000000
H        0.00000000       3.24026883      20.00000000        3       1.00000000       0.00000000       0.00000000       0.00000000       0.00000000       0.00000000       0.00000000
H        2.80615512       3.24026883      20.00000000        3       1.00000000       0.00000000       0.00000000       0.00000000       0.00000000       0.00000000       0.00000000
H        0.00000000       1.62013441      22.29121606        2       1.00000000       0.00000000       0.00000000       0.00000000       0.00000000       0.00000000       0.00000000
H        2.80615512       1.62013441      22.29121606        2       1.00000000       0.00000000       0.00000000       0.00000000       0.00000000       0.00000000       0.00000000
H        1.40307756       4.05033604      22.29121606        2       1.00000000       0.00000000       0.00000000       0.00000000       0.00000000       0.00000000       0.00000000
H        4.20923268       4.05033604      22.29121606        2       1.00000000       0.00000000       0.00000000       0.00000000       0.00000000       0.00000000       0.00000000
H        0.00000000       0.00000000      24.58243212        1       1.00000000       0.00000000       0.00000000       0.00000000       0.00000000       0.00000000       0.00000000
H        2.80615512       0.00000000      24.58243212        1       1.00000000       0.00000000       0.00000000       0.00000000       0.00000000       0.00000000       0.00000000
H        1.40307756       2.43020162      24.58243212        1       1.00000000       0.00000000       0.00000000       0.00000000       0.00000000       0.00000000       0.00000000
H        4.20923268       2.43020162      24.58243212        1       1.00000000       0.00000000       0.00000000       0.00000000       0.00000000       0.00000000       0.00000000
H        4.21917036       4.05018520      26.81112557        0       1.00000000       0.00000333       0.00000044       0.00000333      -0.00000045      -0.00000089      -0.00000106
H        4.20922888       4.05033656      17.77136779        0       1.00000000       0.00000492       0.00000091      -0.00000072       0.00000503      -0.00001843      -0.00000151
H        2.79622762       1.61998479      26.81113085        0       1.00000000       0.00000417       0.00000852       0.00000169       0.00000198       0.00000226       0.00000086
H        2.80615492       1.62013764      17.77136412        0       1.00000000      -0.00000410      -0.00000102      -0.00000015      -0.00000312       0.00001863       0.00000540
H        5.61231116       1.62013514      17.77137038        0       1.00000000       0.00000502       0.00000150      -0.00000652       0.00001064       0.00000640       0.00000287
H        1.40307515       4.05033951      17.77137018        0       1.00000000       0.00000871      -0.00000040      -0.00000370      -0.00001282      -0.00001095      -0.00001045
18
Lattice="5.612310241546866 0.0 0.0 0.0 4.860403243099165 0.0 0.0 0.0 44.58243212332868" Properties=species:S:1:pos:R:3:tags:I:1:masses:R:1:momenta:R:3:forces:R:3 KEmax=23.26679191048647 iter=163007 volume=1216.1236359717223 ns_energy=-11.638031574706874 last_walked_iter_clone=162380 energy=-11.638031574870471 stress="0.022584290117168372 1.5765887796408416e-08 -1.625160850872732e-08 1.5765887796408416e-08 0.022698603351725 -5.5589222795808425e-08 -1.625160850872732e-08 -5.5589222795808425e-08 0.012278116218613553" pbc="T T F"
H        1.40307756       0.81006721      20.00000000        3       1.00000000       0.00000000       0.00000000       0.00000000       0.00000000       0.00000000       0.00000000
H        4.20923268       0.81006721      20.00000000        3       1.00000000       0.00000000       0.00000000       0.00000000       0.00000000       0.00000000       0.00000000
H        0.00000000       3.24026883      20.00000000        3       1.00000000       0.00000000       0.00000000       0.00000000       0.00000000       0.00000000       0.00000000
H        2.80615512       3.24026883      20.00000000        3       1.00000000       0.00000000       0.00000000       0.00000000       0.00000000       0.00000000       0.00000000
H        0.00000000       1.62013441      22.29121606        2       1.00000000       0.00000000       0.00000000       0.00000000       0.00000000       0.00000000       0.00000000
H        2.80615512       1.62013441      22.29121606        2       1.00000000       0.00000000       0.00000000       0.00000000       0.00000000       0.00000000       0.00000000
H        1.40307756       4.05033604      22.29121606        2       1.00000000       0.00000000       0.00000000       0.00000000       0.00000000       0.00000000       0.00000000
H        4.20923268       4.05033604      22.29121606        2       1.00000000       0.00000000       0.00000000       0.00000000       0.00000000       0.00000000       0.00000000
H        0.00000000       0.00000000      24.58243212        1       1.00000000       0.00000000       0.00000000       0.00000000       0.00000000       0.00000000       0.00000000
H        2.80615512       0.00000000      24.58243212        1       1.00000000       0.00000000       0.00000000       0.00000000       0.00000000       0.00000000       0.00000000
H        1.40307756       2.43020162      24.58243212        1       1.00000000       0.00000000       0.00000000       0.00000000       0.00000000       0.00000000       0.00000000
H        4.20923268       2.43020162      24.58243212        1       1.00000000       0.00000000       0.00000000       0.00000000       0.00000000       0.00000000       0.00000000
H        4.21917211       4.05018622      26.81112747        0       1.00000000       0.00000260       0.00000819      -0.00000074      -0.00000045      -0.00000089      -0.00000106
H        4.20922938       4.05033638      17.77136748        0       1.00000000      -0.00000276      -0.00000628       0.00000245       0.00000503      -0.00001843      -0.00000151
H        2.79622554       1.61998704      26.81112978        0       1.00000000      -0.00000037      -0.00000050      -0.00000352       0.00000198       0.00000226       0.00000086
H        2.80615671       1.62013630      17.77136727        0       1.00000000      -0.00000294       0.00000321       0.00000225      -0.00000312       0.00001863       0.00000540
H        5.61230897       1.62013031      17.77136782        0       1.00000000       0.00000288       0.00000662       0.00000410       0.00001064       0.00000640       0.00000287
H        1.40307279       4.05033549      17.77136649        0       1.00000000       0.00000470      -0.00000880      -0.00000646      -0.00001282      -0.00001095      -0.00001045
18
Lattice="5.612310241546866 0.0 0.0 0.0 4.860403243099165 0.0 0.0 0.0 44.58243212332868" Properties=species:S:1:pos:R:3:tags:I:1:masses:R:1:momenta:R:3:forces:R:3 KEmax=23.26679191048647 iter=163007 volume=1216.1236359717223 ns_energy=-11.638031574697175 last_walked_iter_clone=162894 energy=-11.638031574870471 stress="0.022584290117168372 1.5765887796408416e-08 -1.625160850872732e-08 1.5765887796408416e-08 0.022698603351725 -5.5589222795808425e-08 -1.625160850872732e-08 -5.5589222795808425e-08 0.012278116218613553" pbc="T T F"
H        1.40307756       0.81006721      20.00000000        3       1.00000000       0.00000000       0.00000000       0.00000000       0.00000000       0.00000000       0.00000000
H        4.20923268       0.81006721      20.00000000        3       1.00000000       0.00000000       0.00000000       0.00000000       0.00000000       0.00000000       0.00000000
H        0.00000000       3.24026883      20.00000000        3       1.00000000       0.00000000       0.00000000       0.00000000       0.00000000       0.00000000       0.00000000
H        2.80615512       3.24026883      20.00000000        3       1.00000000       0.00000000       0.00000000       0.00000000       0.00000000       0.00000000       0.00000000
H        0.00000000       1.62013441      22.29121606        2       1.00000000       0.00000000       0.00000000       0.00000000       0.00000000       0.00000000       0.00000000
H        2.80615512       1.62013441      22.29121606        2       1.00000000       0.00000000       0.00000000       0.00000000       0.00000000       0.00000000       0.00000000
H        1.40307756       4.05033604      22.29121606        2       1.00000000       0.00000000       0.00000000       0.00000000       0.00000000       0.00000000       0.00000000
H        4.20923268       4.05033604      22.29121606        2       1.00000000       0.00000000       0.00000000       0.00000000       0.00000000       0.00000000       0.00000000
H        0.00000000       0.00000000      24.58243212        1       1.00000000       0.00000000       0.00000000       0.00000000       0.00000000       0.00000000       0.00000000
H        2.80615512       0.00000000      24.58243212        1       1.00000000       0.00000000       0.00000000       0.00000000       0.00000000       0.00000000       0.00000000
H        1.40307756       2.43020162      24.58243212        1       1.00000000       0.00000000       0.00000000       0.00000000       0.00000000       0.00000000       0.00000000
H        4.20923268       2.43020162      24.58243212        1       1.00000000       0.00000000       0.00000000       0.00000000       0.00000000       0.00000000       0.00000000
H        4.21916121       4.05019116      26.81113402        0       1.00000000      -0.00000746      -0.00001014      -0.00000187      -0.00000045      -0.00000089      -0.00000106
H        4.20923186       4.05033826      17.77136734        0       1.00000000      -0.00000381       0.00000331      -0.00000820       0.00000503      -0.00001843      -0.00000151
H        2.79621614       1.61998785      26.81112989        0       1.00000000      -0.00000046      -0.00000252      -0.00000241       0.00000198       0.00000226       0.00000086
H        2.80615469       1.62013173      17.77136567        0       1.00000000      -0.00000043       0.00000505       0.00000071      -0.00000312       0.00001863       0.00000540
H       -0.00000361       1.62012906      17.77136819        0       1.00000000      -0.00000126       0.00000021      -0.00000493       0.00001064       0.00000640       0.00000287
H        1.40307717       4.05033329      17.77136495        0       1.00000000      -0.00000027       0.00000506       0.00000302      -0.00001282      -0.00001095      -0.00001045
18
Lattice="5.612310241546866 0.0 0.0 0.0 4.860403243099165 0.0 0.0 0.0 44.58243212332868" Properties=species:S:1:pos:R:3:tags:I:1:masses:R:1:momenta:R:3:forces:R:3 KEmax=23.26679191048647 iter=163007 volume=1216.1236359717223 ns_energy=-11.63803157470204 last_walked_iter_clone=162630 energy=-11.638031574870471 stress="0.022584290117168372 1.5765887796408416e-08 -1.625160850872732e-08 1.5765887796408416e-08 0.022698603351725 -5.5589222795808425e-08 -1.625160850872732e-08 -5.5589222795808425e-08 0.012278116218613553" pbc="T T F"
H        1.40307756       0.81006721      20.00000000        3       1.00000000       0.00000000       0.00000000       0.00000000       0.00000000       0.00000000       0.00000000
H        4.20923268       0.81006721      20.00000000        3       1.00000000       0.00000000       0.00000000       0.00000000       0.00000000       0.00000000       0.00000000
H        0.00000000       3.24026883      20.00000000        3       1.00000000       0.00000000       0.00000000       0.00000000       0.00000000       0.00000000       0.00000000
H        2.80615512       3.24026883      20.00000000        3       1.00000000       0.00000000       0.00000000       0.00000000       0.00000000       0.00000000       0.00000000
H        0.00000000       1.62013441      22.29121606        2       1.00000000       0.00000000       0.00000000       0.00000000       0.00000000       0.00000000       0.00000000
H        2.80615512       1.62013441      22.29121606        2       1.00000000       0.00000000       0.00000000       0.00000000       0.00000000       0.00000000       0.00000000
H        1.40307756       4.05033604      22.29121606        2       1.00000000       0.00000000       0.00000000       0.00000000       0.00000000       0.00000000       0.00000000
H        4.20923268       4.05033604      22.29121606        2       1.00000000       0.00000000       0.00000000       0.00000000       0.00000000       0.00000000       0.00000000
H        0.00000000       0.00000000      24.58243212        1       1.00000000       0.00000000       0.00000000       0.00000000       0.00000000       0.00000000       0.00000000
H        2.80615512       0.00000000      24.58243212        1       1.00000000       0.00000000       0.00000000       0.00000000       0.00000000       0.00000000       0.00000000
H        1.40307756       2.43020162      24.58243212        1       1.00000000       0.00000000       0.00000000       0.00000000       0.00000000       0.00000000       0.00000000
H        4.20923268       2.43020162      24.58243212        1       1.00000000       0.00000000       0.00000000       0.00000000       0.00000000       0.00000000       0.00000000
H        4.21916357       4.05019404      26.81113191        0       1.00000000       0.00000387       0.00000045       0.00000448      -0.00000045      -0.00000089      -0.00000106
H        4.20922880       4.05033705      17.77136802        0       1.00000000      -0.00000622      -0.00000078       0.00000324       0.00000503      -0.00001843      -0.00000151
H        2.79622886       1.61998923      26.81112973        0       1.00000000       0.00000125       0.00000558       0.00000038       0.00000198       0.00000226       0.00000086
H        2.80615761       1.62013445      17.77136934        0       1.00000000       0.00000117       0.00000461      -0.00001059      -0.00000312       0.00001863       0.00000540
H       -0.00000169       1.62013278      17.77136781        0       1.00000000      -0.00000119       0.00000174       0.00000216       0.00001064       0.00000640       0.00000287
H        1.40308261       4.05033648      17.77136781        0       1.00000000       0.00000162      -0.00000194      -0.00000363      -0.00001282      -0.00001095      -0.00001045
18
Lattice="5.612310241546866 0.0 0.0 0.0 4.860403243099165 0.0 0.0 0.0 44.58243212332868" Properties=species:S:1:pos:R:3:tags:I:1:masses:R:1:momenta:R:3:forces:R:3 KEmax=23.26679191048647 iter=163007 volume=1216.1236359717223 ns_energy=-11.638031574695685 last_walked_iter_clone=163004 energy=-11.638031574870471 stress="0.022584290117168372 1.5765887796408416e-08 -1.625160850872732e-08 1.5765887796408416e-08 0.022698603351725 -5.5589222795808425e-08 -1.625160850872732e-08 -5.5589222795808425e-08 0.012278116218613553" pbc="T T F"
H        1.40307756       0.81006721      20.00000000        3       1.00000000       0.00000000       0.00000000       0.00000000       0.00000000       0.00000000       0.00000000
H        4.20923268       0.81006721      20.00000000        3       1.00000000       0.00000000       0.00000000       0.00000000       0.00000000       0.00000000       0.00000000
H        0.00000000       3.24026883      20.00000000        3       1.00000000       0.00000000       0.00000000       0.00000000       0.00000000       0.00000000       0.00000000
H        2.80615512       3.24026883      20.00000000        3       1.00000000       0.00000000       0.00000000       0.00000000       0.00000000       0.00000000       0.00000000
H        0.00000000       1.62013441      22.29121606        2       1.00000000       0.00000000       0.00000000       0.00000000       0.00000000       0.00000000       0.00000000
H        2.80615512       1.62013441      22.29121606        2       1.00000000       0.00000000       0.00000000       0.00000000       0.00000000       0.00000000       0.00000000
H        1.40307756       4.05033604      22.29121606        2       1.00000000       0.00000000       0.00000000       0.00000000       0.00000000       0.00000000       0.00000000
H        4.20923268       4.05033604      22.29121606        2       1.00000000       0.00000000       0.00000000       0.00000000       0.00000000       0.00000000       0.00000000
H        0.00000000       0.00000000      24.58243212        1       1.00000000       0.00000000       0.00000000       0.00000000       0.00000000       0.00000000       0.00000000
H        2.80615512       0.00000000      24.58243212        1       1.00000000       0.00000000       0.00000000       0.00000000       0.00000000       0.00000000       0.00000000
H        1.40307756       2.43020162      24.58243212        1       1.00000000       0.00000000       0.00000000       0.00000000       0.00000000       0.00000000       0.00000000
H        4.20923268       2.43020162      24.58243212        1       1.00000000       0.00000000       0.00000000       0.00000000       0.00000000       0.00000000       0.00000000
H        4.21917722       4.05019783      26.81112949        0       1.00000000       0.00000436       0.00000414      -0.00000072      -0.00000045      -0.00000089      -0.00000106
H        4.20923140       4.05033491      17.77136370        0       1.00000000      -0.00000014      -0.00000624       0.00000044       0.00000503      -0.00001843      -0.00000151
H        2.79622697       1.61999055      26.81112896        0       1.00000000       0.00000042      -0.00000147      -0.00000202       0.00000198       0.00000226       0.00000086
H        2.80615632       1.62013156      17.77136453        0       1.00000000       0.00000155      -0.00000354      -0.00000048      -0.00000312       0.00001863       0.00000540
H        0.00000072       1.62012774      17.77136698        0       1.00000000       0.00000054       0.00000542       0.00000310       0.00001064       0.00000640       0.00000287
H        1.40307978       4.05033394      17.77136938        0       1.00000000      -0.00000677      -0.00000229      -0.00000276      -0.00001282      -0.00001095      -0.00001045
18
Lattice="5.612310241546866 0.0 0.0 0.0 4.860403243099165 0.0 0.0 0.0 44.58243212332868" Properties=species:S:1:pos:R:3:tags:I:1:masses:R:1:momenta:R:3:forces:R:3 KEmax=23.26679191048647 iter=163007 volume=1216.1236359717223 ns_energy=-11.638031574695637 last_walked_iter_clone=162962 energy=-11.638031574870471 stress="0.022584290117168372 1.5765887796408416e-08 -1.625160850872732e-08 1.5765887796408416e-08 0.022698603351725 -5.5589222795808425e-08 -1.625160850872732e-08 -5.5589222795808425e-08 0.012278116218613553" pbc="T T F"
H        1.40307756       0.81006721      20.00000000        3       1.00000000       0.00000000       0.00000000       0.00000000       0.00000000       0.00000000       0.00000000
H        4.20923268       0.81006721      20.00000000        3       1.00000000       0.00000000       0.00000000       0.00000000       0.00000000       0.00000000       0.00000000
H        0.00000000       3.24026883      20.00000000        3       1.00000000       0.00000000       0.00000000       0.00000000       0.00000000       0.00000000       0.00000000
H        2.80615512       3.24026883      20.00000000        3       1.00000000       0.00000000       0.00000000       0.00000000       0.00000000       0.00000000       0.00000000
H        0.00000000       1.62013441      22.29121606        2       1.00000000       0.00000000       0.00000000       0.00000000       0.00000000       0.00000000       0.00000000
H        2.80615512       1.62013441      22.29121606        2       1.00000000       0.00000000       0.00000000       0.00000000       0.00000000       0.00000000       0.00000000
H        1.40307756       4.05033604      22.29121606        2       1.00000000       0.00000000       0.00000000       0.00000000       0.00000000       0.00000000       0.00000000
H        4.20923268       4.05033604      22.29121606        2       1.00000000       0.00000000       0.00000000       0.00000000       0.00000000       0.00000000       0.00000000
H        0.00000000       0.00000000      24.58243212        1       1.00000000       0.00000000       0.00000000       0.00000000       0.00000000       0.00000000       0.00000000
H        2.80615512       0.00000000      24.58243212        1       1.00000000       0.00000000       0.00000000       0.00000000       0.00000000       0.00000000       0.00000000
H        1.40307756       2.43020162      24.58243212        1       1.00000000       0.00000000       0.00000000       0.00000000       0.00000000       0.00000000       0.00000000
H        4.20923268       2.43020162      24.58243212        1       1.00000000       0.00000000       0.00000000       0.00000000       0.00000000       0.00000000       0.00000000
H        4.21916510       4.05018885      26.81112924        0       1.00000000      -0.00000192      -0.00000574       0.00000090      -0.00000045      -0.00000089      -0.00000106
H        4.20923866       4.05033486      17.77136477        0       1.00000000       0.00000431      -0.00000558       0.00000221       0.00000503      -0.00001843      -0.00000151
H        2.79622689       1.61999236      26.81112817        0       1.00000000       0.00000210      -0.00000231       0.00000722       0.00000198       0.00000226       0.00000086
H        2.80616472       1.62013186      17.77137010        0       1.00000000       0.00000511      -0.00000249       0.00000098      -0.00000312       0.00001863       0.00000540
H        5.61231662       1.62013277      17.77136924        0       1.00000000      -0.00000217       0.00000064       0.00000033       0.00001064       0.00000640       0.00000287
H        1.40308370       4.05033975      17.77136324        0       1.00000000      -0.00000155       0.00000027       0.00000589      -0.00001282      -0.00001095      -0.00001045
18
Lattice="5.612310241546866 0.0 0.0 0.0 4.860403243099165 0.0 0.0 0.0 44.58243212332868" Properties=species:S:1:pos:R:3:tags:I:1:masses:R:1:momenta:R:3:forces:R:3 KEmax=23.26679191048647 iter=163007 volume=1216.1236359717223 ns_energy=-11.638031574697706 last_walked_iter_clone=162830 energy=-11.638031574870471 stress="0.022584290117168372 1.5765887796408416e-08 -1.625160850872732e-08 1.5765887796408416e-08 0.022698603351725 -5.5589222795808425e-08 -1.625160850872732e-08 -5.5589222795808425e-08 0.012278116218613553" pbc="T T F"
H        1.40307756       0.81006721      20.00000000        3       1.00000000       0.00000000       0.00000000       0.00000000       0.00000000       0.00000000       0.00000000
H        4.20923268       0.81006721      20.00000000        3       1.00000000       0.00000000       0.00000000       0.00000000       0.00000000       0.00000000       0.00000000
H        0.00000000       3.24026883      20.00000000        3       1.00000000       0.00000000       0.00000000       0.00000000       0.00000000       0.00000000       0.00000000
H        2.80615512       3.24026883      20.00000000        3       1.00000000       0.00000000       0.00000000       0.00000000       0.00000000       0.00000000       0.00000000
H        0.00000000       1.62013441      22.29121606        2       1.00000000       0.00000000       0.00000000       0.00000000       0.00000000       0.00000000       0.00000000
H        2.80615512       1.62013441      22.29121606        2       1.00000000       0.00000000       0.00000000       0.00000000       0.00000000       0.00000000       0.00000000
H        1.40307756       4.05033604      22.29121606        2       1.00000000       0.00000000       0.00000000       0.00000000       0.00000000       0.00000000       0.00000000
H        4.20923268       4.05033604      22.29121606        2       1.00000000       0.00000000       0.00000000       0.00000000       0.00000000       0.00000000       0.00000000
H        0.00000000       0.00000000      24.58243212        1       1.00000000       0.00000000       0.00000000       0.00000000       0.00000000       0.00000000       0.00000000
H        2.80615512       0.00000000      24.58243212        1       1.00000000       0.00000000       0.00000000       0.00000000       0.00000000       0.00000000       0.00000000
H        1.40307756       2.43020162      24.58243212        1       1.00000000       0.00000000       0.00000000       0.00000000       0.00000000       0.00000000       0.00000000
H        4.20923268       2.43020162      24.58243212        1       1.00000000       0.00000000       0.00000000       0.00000000       0.00000000       0.00000000       0.00000000
H        4.21916496       4.05019086      26.81112911        0       1.00000000      -0.00000768       0.00000175      -0.00000502      -0.00000045      -0.00000089      -0.00000106
H        4.20922916       4.05033133      17.77136246        0       1.00000000       0.00000945       0.00000377       0.00000186       0.00000503      -0.00001843      -0.00000151
H        2.79622729       1.61999487      26.81112690        0       1.00000000       0.00000136       0.00000230      -0.00000043       0.00000198       0.00000226       0.00000086