18
Lattice="5.612310241546866 0.0 0.0 0.0 4.860403243099165 0.0 0.0 0.0 44.58243212332868" Properties=species:S:1:pos:R:3:tags:I:1:masses:R:1:momenta:R:3:forces:R:3 KEmax=23.26679191048647 iter=239999 volume=1216.1236359717223 ns_energy=-11.638031575016132 last_walked_iter_clone=239637 energy=-11.638029429044481 stress="0.022584181619595377 -2.4524826649088862e-08 1.53651152681899e-08 -2.4524826649088862e-08 0.022698543978265418 -1.153898295082512e-08 1.53651152681899e-08 -1.153898295082512e-08 0.012278095307556702" pbc="T T F"
H        1.40307756       0.81006721      20.00000000        3       1.00000000       0.00000000       0.00000000       0.00000000       0.00000000       0.00000000       0.00000000
H        4.20923268       0.81006721      20.00000000        3       1.00000000       0.00000000       0.00000000       0.00000000       0.00000000       0.00000000       0.00000000
H        0.00000000       3.24026883      20.00000000        3       1.00000000       0.00000000       0.00000000       0.00000000       0.00000000       0.00000000       0.00000000
H        2.80615512       3.24026883      20.00000000        3       1.00000000       0.00000000       0.00000000       0.00000000       0.00000000       0.00000000       0.00000000
H        0.00000000       1.62013441      22.29121606        2       1.00000000       0.00000000       0.00000000       0.00000000       0.00000000       0.00000000       0.00000000
H        2.80615512       1.62013441      22.29121606        2       1.00000000       0.00000000       0.00000000       0.00000000       0.00000000       0.00000000       0.00000000
H        1.40307756       4.05033604      22.29121606        2       1.00000000       0.00000000       0.00000000       0.00000000       0.00000000       0.00000000       0.00000000
H        4.20923268       4.05033604      22.29121606        2       1.00000000       0.00000000       0.00000000       0.00000000       0.00000000       0.00000000       0.00000000
H        0.00000000       0.00000000      24.58243212        1       1.00000000       0.00000000       0.00000000       0.00000000       0.00000000       0.00000000       0.00000000
H        2.80615512       0.00000000      24.58243212        1       1.00000000       0.00000000       0.00000000       0.00000000       0.00000000       0.00000000       0.00000000
H        1.40307756       2.43020162      24.58243212        1       1.00000000       0.00000000       0.00000000       0.00000000       0.00000000       0.00000000       0.00000000
H        4.20923268       2.43020162      24.58243212        1       1.00000000       0.00000000       0.00000000       0.00000000       0.00000000       0.00000000       0.00000000
H        4.21916332       4.05018913      26.81113042        0       1.00000000      -0.00000061      -0.00000041       0.00000000       0.00000043       0.00000325       0.00000314
H        4.20923206       4.05033587      17.77136704        0       1.00000000       0.00000053       0.00000057      -0.00000128       0.00038575      -0.00180513       0.00000068
H        2.79622313       1.61998773      26.81113143        0       1.00000000      -0.00000047      -0.00000014       0.00000100      -0.00000023      -0.00000387      -0.00000378
H        2.80615447       1.62013419      17.77136674        0       1.00000000       0.00000099       0.00000036      -0.00000095       0.00229643       0.00178082      -0.00000068
H       -0.00000083       1.62013462      17.77136669        0       1.00000000       0.00000079      -0.00000021      -0.00000074      -0.00229299       0.00183781      -0.00000185
H        1.40307717       4.05033564      17.77136731        0       1.00000000      -0.00000042      -0.00000021      -0.00000035      -0.00038729      -0.00181498      -0.00000535
18
Lattice="5.612310241546866 0.0 0.0 0.0 4.860403243099165 0.0 0.0 0.0 44.58243212332868" Properties=species:S:1:pos:R:3:tags:I:1:masses:R:1:momenta:R:3:forces:R:3 KEmax=23.26679191048647 iter=239999 volume=1216.1236359717223 ns_energy=-11.638031575016063 last_walked_iter_clone=235852 energy=-11.638029429044481 stress="0.022584181619595377 -2.4524826649088862e-08 1.53651152681899e-08 -2.4524826649088862e-08 0.022698543978265418 -1.153898295082512e-08 1.53651152681899e-08 -1.153898295082512e-08 0.012278095307556702" pbc="T T F"
H        1.40307756       0.81006721      20.00000000        3       1.00000000       0.00000000       0.00000000       0.00000000       0.00000000       0.00000000       0.00000000
H        4.20923268       0.81006721      20.00000000        3       1.00000000       0.00000000       0.00000000       0.00000000       0.00000000       0.00000000       0.00000000
H        0.00000000       3.24026883      20.00000000        3       1.00000000       0.00000000       0.00000000       0.00000000       0.00000000       0.00000000       0.00000000
H        2.80615512       3.24026883      20.00000000        3       1.00000000       0.00000000       0.00000000       0.00000000       0.00000000       0.00000000       0.00000000
H        0.00000000       1.62013441      22.29121606        2       1.00000000       0.00000000       0.00000000       0.00000000       0.00000000       0.00000000       0.00000000
H        2.80615512       1.62013441      22.29121606        2       1.00000000       0.00000000       0.00000000       0.00000000       0.00000000       0.00000000       0.00000000
H        1.40307756       4.05033604      22.29121606        2       1.00000000       0.00000000       0.00000000       0.00000000       0.00000000       0.00000000       0.00000000
H        4.20923268       4.05033604      22.29121606        2       1.00000000       0.00000000       0.00000000       0.00000000       0.00000000       0.00000000       0.00000000
H        0.00000000       0.00000000      24.58243212        1       1.00000000       0.00000000       0.00000000       0.00000000       0.00000000       0.00000000       0.00000000
H        2.80615512       0.00000000      24.58243212        1       1.00000000       0.00000000       0.00000000       0.00000000       0.00000000       0.00000000       0.00000000
H        1.40307756       2.43020162      24.58243212        1       1.00000000       0.00000000       0.00000000       0.00000000       0.00000000       0.00000000       0.00000000
H        4.20923268       2.43020162      24.58243212        1       1.00000000       0.00000000       0.00000000       0.00000000       0.00000000       0.00000000       0.00000000
H        4.21916395       4.05018957      26.81113057        0       1.00000000      -0.00000082       0.00000111       0.00000010       0.00000043       0.00000325       0.00000314
H        4.20923273       4.05033539      17.77136689        0       1.00000000      -0.00000023       0.00000021      -0.00000113       0.00038575      -0.00180513       0.00000068
H        2.79622430       1.61998786      26.81113075        0       1.00000000      -0.00000079      -0.00000014       0.00000072      -0.00000023      -0.00000387      -0.00000378
H        2.80615569       1.62013417      17.77136704        0       1.00000000      -0.00000009       0.00000030       0.00000116       0.00229643       0.00178082      -0.00000068
H        0.00000044       1.62013427      17.77136722        0       1.00000000      -0.00000015       0.00000119      -0.00000024      -0.00229299       0.00183781      -0.00000185
H        1.40307764       4.05033552      17.77136656        0       1.00000000       0.00000055      -0.00000098      -0.00000128      -0.00038729      -0.00181498      -0.00000535
18
Lattice="5.612310241546866 0.0 0.0 0.0 4.860403243099165 0.0 0.0 0.0 44.58243212332868" Properties=species:S:1:pos:R:3:tags:I:1:masses:R:1:momenta:R:3:forces:R:3 KEmax=23.26679191048647 iter=239999 volume=1216.1236359717223 ns_energy=-11.63803157501612 last_walked_iter_clone=237954 energy=-11.638029429044481 stress="0.022584181619595377 -2.4524826649088862e-08 1.53651152681899e-08 -2.4524826649088862e-08 0.022698543978265418 -1.153898295082512e-08 1.53651152681899e-08 -1.153898295082512e-08 0.012278095307556702" pbc="T T F"
H        1.40307756       0.81006721      20.00000000        3       1.00000000       0.00000000       0.00000000       0.00000000       0.00000000       0.00000000       0.00000000
H        4.20923268       0.81006721      20.00000000        3       1.00000000       0.00000000       0.00000000       0.00000000       0.00000000       0.00000000       0.00000000
H        0.00000000       3.24026883      20.00000000        3       1.00000000       0.00000000       0.00000000       0.00000000       0.00000000       0.00000000       0.00000000
H        2.80615512       3.24026883      20.00000000        3       1.00000000       0.00000000       0.00000000       0.00000000       0.00000000       0.00000000       0.00000000
H        0.00000000       1.62013441      22.29121606        2       1.00000000       0.00000000       0.00000000       0.00000000       0.00000000       0.00000000       0.00000000
H        2.80615512       1.62013441      22.29121606        2       1.00000000       0.00000000       0.00000000       0.00000000       0.00000000       0.00000000       0.00000000
H        1.40307756       4.05033604      22.29121606        2       1.00000000       0.00000000       0.00000000       0.00000000       0.00000000       0.00000000       0.00000000
H        4.20923268       4.05033604      22.29121606        2       1.00000000       0.00000000       0.00000000       0.00000000       0.00000000       0.00000000       0.00000000
H        0.00000000       0.00000000      24.58243212        1       1.00000000       0.00000000       0.00000000       0.00000000       0.00000000       0.00000000       0.00000000
H        2.80615512       0.00000000      24.58243212        1       1.00000000       0.00000000       0.00000000       0.00000000       0.00000000       0.00000000       0.00000000
H        1.40307756       2.43020162      24.58243212        1       1.00000000       0.00000000       0.00000000       0.00000000       0.00000000       0.00000000       0.00000000
H        4.20923268       2.43020162      24.58243212        1       1.00000000       0.00000000       0.00000000       0.00000000       0.00000000       0.00000000       0.00000000
H        4.21916454       4.05018826      26.81113076        0       1.00000000      -0.00000020       0.00000001      -0.00000145       0.00000043       0.00000325       0.00000314
H        4.20923268       4.05033592      17.77136739        0       1.00000000      -0.00000019      -0.00000186       0.00000029       0.00038575      -0.00180513       0.00000068
H        2.79622329       1.61998724      26.81113047        0       1.00000000      -0.00000030      -0.00000073       0.00000083      -0.00000023      -0.00000387      -0.00000378
H        2.80615527       1.62013404      17.77136704        0       1.00000000      -0.00000072       0.00000059      -0.00000128       0.00229643       0.00178082      -0.00000068
H        5.61231019       1.62013427      17.77136731        0       1.00000000      -0.00000009       0.00000039      -0.00000012      -0.00229299       0.00183781      -0.00000185
H        1.40307764       4.05033575      17.77136757        0       1.00000000      -0.00000000       0.00000008       0.00000007      -0.00038729      -0.00181498      -0.00000535
18
Lattice="5.612310241546866 0.0 0.0 0.0 4.860403243099165 0.0 0.0 0.0 44.58243212332868" Properties=species:S:1:pos:R:3:tags:I:1:masses:R:1:momenta:R:3:forces:R:3 KEmax=23.26679191048647 iter=239999 volume=1216.1236359717223 ns_energy=-11.63803157501609 last_walked_iter_clone=238492 energy=-11.638029429044481 stress="0.022584181619595377 -2.4524826649088862e-08 1.53651152681899e-08 -2.4524826649088862e-08 0.022698543978265418 -1.153898295082512e-08 1.53651152681899e-08 -1.153898295082512e-08 0.012278095307556702" pbc="T T F"
H        1.40307756       0.81006721      20.00000000        3       1.00000000       0.00000000       0.00000000       0.00000000       0.00000000       0.00000000       0.00000000
H        4.20923268       0.81006721      20.00000000        3       1.00000000       0.00000000       0.00000000       0.00000000       0.00000000       0.00000000       0.00000000
H        0.00000000       3.24026883      20.00000000        3       1.00000000       0.00000000       0.00000000       0.00000000       0.00000000       0.00000000       0.00000000
H        2.80615512       3.24026883      20.00000000        3       1.00000000       0.00000000       0.00000000       0.00000000       0.00000000       0.00000000       0.00000000
H        0.00000000       1.62013441      22.29121606        2       1.00000000       0.00000000       0.00000000       0.00000000       0.00000000       0.00000000       0.00000000
H        2.80615512       1.62013441      22.29121606        2       1.00000000       0.00000000       0.00000000       0.00000000       0.00000000       0.00000000       0.00000000
H        1.40307756       4.05033604      22.29121606        2       1.00000000       0.00000000       0.00000000       0.00000000       0.00000000       0.00000000       0.00000000
H        4.20923268       4.05033604      22.29121606        2       1.00000000       0.00000000       0.00000000       0.00000000       0.00000000       0.00000000       0.00000000
H        0.00000000       0.00000000      24.58243212        1       1.00000000       0.00000000       0.00000000       0.00000000       0.00000000       0.00000000       0.00000000
H        2.80615512       0.00000000      24.58243212        1       1.00000000       0.00000000       0.00000000       0.00000000       0.00000000       0.00000000       0.00000000
H        1.40307756       2.43020162      24.58243212        1       1.00000000       0.00000000       0.00000000       0.00000000       0.00000000       0.00000000       0.00000000
H        4.20923268       2.43020162      24.58243212        1       1.00000000       0.00000000       0.00000000       0.00000000       0.00000000       0.00000000       0.00000000
H        4.21916463       4.05018950      26.81113071        0       1.00000000       0.00000012      -0.00000010      -0.00000027       0.00000043       0.00000325       0.00000314
H        4.20923302       4.05033581      17.77136752        0       1.00000000       0.00000087       0.00000209      -0.00000051       0.00038575      -0.00180513       0.00000068
H        2.79622434       1.61998766      26.81113085        0       1.00000000       0.00000009       0.00000018      -0.00000012      -0.00000023      -0.00000387      -0.00000378
H        2.80615501       1.62013429      17.77136630        0       1.00000000      -0.00000049      -0.00000059      -0.00000049       0.00229643       0.00178082      -0.00000068
H        0.00000017       1.62013423      17.77136778        0       1.00000000       0.00000043      -0.00000133       0.00000022      -0.00229299       0.00183781      -0.00000185
H        1.40307781       4.05033609      17.77136709        0       1.00000000       0.00000045       0.00000023       0.00000022      -0.00038729      -0.00181498      -0.00000535
18
Lattice="5.612310241546866 0.0 0.0 0.0 4.860403243099165 0.0 0.0 0.0 44.58243212332868" Properties=species:S:1:pos:R:3:tags:I:1:masses:R:1:momenta:R:3:forces:R:3 KEmax=23.26679191048647 iter=239999 volume=1216.1236359717223 ns_energy=-11.638031575016122 last_walked_iter_clone=236950 energy=-11.638029429044481 stress="0.022584181619595377 -2.4524826649088862e-08 1.53651152681899e-08 -2.4524826649088862e-08 0.022698543978265418 -1.153898295082512e-08 1.53651152681899e-08 -1.153898295082512e-08 0.012278095307556702" pbc="T T F"
H        1.40307756       0.81006721      20.00000000        3       1.00000000       0.00000000       0.00000000       0.00000000       0.00000000       0.00000000       0.00000000
H        4.20923268       0.81006721      20.00000000        3       1.00000000       0.00000000       0.00000000       0.00000000       0.00000000       0.00000000       0.00000000
H        0.00000000       3.24026883      20.00000000        3       1.00000000       0.00000000       0.00000000       0.00000000       0.00000000       0.00000000       0.00000000
H        2.80615512       3.24026883      20.00000000        3       1.00000000       0.00000000       0.00000000       0.00000000       0.00000000       0.00000000       0.00000000
H        0.00000000       1.62013441      22.29121606        2       1.00000000       0.00000000       0.00000000       0.00000000       0.00000000       0.00000000       0.00000000
H        2.80615512       1.62013441      22.29121606        2       1.00000000       0.00000000       0.00000000       0.00000000       0.00000000       0.00000000       0.00000000
H        1.40307756       4.05033604      22.29121606        2       1.00000000       0.00000000       0.00000000       0.00000000       0.00000000       0.00000000       0.00000000
H        4.20923268       4.05033604      22.29121606        2       1.00000000       0.00000000       0.00000000       0.00000000       0.00000000       0.00000000       0.00000000
H        0.00000000       0.00000000      24.58243212        1       1.00000000       0.00000000       0.00000000       0.00000000       0.00000000       0.00000000       0.00000000
H        2.80615512       0.00000000      24.58243212        1       1.00000000       0.00000000       0.00000000       0.00000000       0.00000000       0.00000000       0.00000000
H        1.40307756       2.43020162      24.58243212        1       1.00000000       0.00000000       0.00000000       0.00000000       0.00000000       0.00000000       0.00000000
H        4.20923268       2.43020162      24.58243212        1       1.00000000       0.00000000       0.00000000       0.00000000       0.00000000       0.00000000       0.00000000
H        4.21916374       4.05018914      26.81113111        0       1.00000000      -0.00000005      -0.00000000       0.00000016       0.00000043       0.00000325       0.00000314
H        4.20923283       4.05033677      17.77136753        0       1.00000000       0.00000055       0.00000044      -0.00000107       0.00038575      -0.00180513       0.00000068
H        2.79622432       1.61998886      26.81113082        0       1.00000000       0.00000154      -0.00000007       0.00000018      -0.00000023      -0.00000387      -0.00000378
H        2.80615560       1.62013466      17.77136768        0       1.00000000      -0.00000031      -0.00000002      -0.00000040       0.00229643       0.00178082      -0.00000068
H        0.00000033       1.62013507      17.77136672        0       1.00000000      -0.00000057      -0.00000035      -0.00000043      -0.00229299       0.00183781      -0.00000185
H        1.40307737       4.05033662      17.77136729        0       1.00000000      -0.00000002      -0.00000049       0.00000057      -0.00038729      -0.00181498      -0.00000535
18
Lattice="5.612310241546866 0.0 0.0 0.0 4.860403243099165 0.0 0.0 0.0 44.58243212332868" Properties=species:S:1:pos:R:3:tags:I:1:masses:R:1:momenta:R:3:forces:R:3 KEmax=23.26679191048647 iter=239999 volume=1216.1236359717223 ns_energy=-11.638031575016209 last_walked_iter_clone=239614 energy=-11.638029429044481 stress="0.022584181619595377 -2.4524826649088862e-08 1.53651152681899e-08 -2.4524826649088862e-08 0.022698543978265418 -1.153898295082512e-08 1.53651152681899e-08 -1.153898295082512e-08 0.012278095307556702" pbc="T T F"
H        1.40307756       0.81006721      20.00000000        3       1.00000000       0.00000000       0.00000000       0.00000000       0.00000000       0.00000000       0.00000000
H        4.20923268       0.81006721      20.00000000        3       1.00000000       0.00000000       0.00000000       0.00000000       0.00000000       0.00000000       0.00000000
H        0.00000000       3.24026883      20.00000000        3       1.00000000       0.00000000       0.00000000       0.00000000       0.00000000       0.00000000       0.00000000
H        2.80615512       3.24026883      20.00000000        3       1.00000000       0.00000000       0.00000000       0.00000000       0.00000000       0.00000000       0.00000000
H        0.00000000       1.62013441      22.29121606        2       1.00000000       0.00000000       0.00000000       0.00000000       0.00000000       0.00000000       0.00000000
H        2.80615512       1.62013441      22.29121606        2       1.00000000       0.00000000       0.00000000       0.00000000       0.00000000       0.00000000       0.00000000
H        1.40307756       4.05033604      22.29121606        2       1.00000000       0.00000000       0.00000000       0.00000000       0.00000000       0.00000000       0.00000000
H        4.20923268       4.05033604      22.29121606        2       1.00000000       0.00000000       0.00000000       0.00000000       0.00000000       0.00000000       0.00000000
H        0.00000000       0.00000000      24.58243212        1       1.00000000       0.00000000       0.00000000       0.00000000       0.00000000       0.00000000       0.00000000
H        2.80615512       0.00000000      24.58243212        1       1.00000000       0.00000000       0.00000000       0.00000000       0.00000000       0.00000000       0.00000000
H        1.40307756       2.43020162      24.58243212        1       1.00000000       0.00000000       0.00000000       0.00000000       0.00000000       0.00000000       0.00000000
H        4.20923268       2.43020162      24.58243212        1       1.00000000       0.00000000       0.00000000       0.00000000       0.00000000       0.00000000       0.00000000
H        4.21916336       4.05018963      26.81113048        0       1.00000000       0.00000075       0.00000042       0.00000050       0.00000043       0.00000325       0.00000314
H        4.20923275       4.05033532      17.77136690        0       1.00000000      -0.00000106       0.00000108      -0.00000006       0.00038575      -0.00180513       0.00000068
H        2.79622481       1.61998806      26.81113095        0       1.00000000       0.00000032      -0.00000087      -0.00000056      -0.00000023      -0.00000387      -0.00000378
H        2.80615560       1.62013417      17.77136691        0       1.00000000       0.00000015      -0.00000158      -0.00000010       0.00229643       0.00178082      -0.00000068
H        0.00000037       1.62013438      17.77136731        0       1.00000000       0.00000040      -0.00000056       0.00000018      -0.00229299       0.00183781      -0.00000185
H        1.40307755       4.05033600      17.77136668        0       1.00000000      -0.00000008      -0.00000055      -0.00000103      -0.00038729      -0.00181498      -0.00000535
18
Lattice="5.612310241546866 0.0 0.0 0.0 4.860403243099165 0.0 0.0 0.0 44.58243212332868" Properties=species:S:1:pos:R:3:tags:I:1:masses:R:1:momenta:R:3:forces:R:3 KEmax=23.26679191048647 iter=239999 volume=1216.1236359717223 ns_energy=-11.638031575016198 last_walked_iter_clone=231896 energy=-11.638029429044481 stress="0.022584181619595377 -2.4524826649088862e-08 1.53651152681899e-08 -2.4524826649088862e-08 0.022698543978265418 -1.153898295082512e-08 1.53651152681899e-08 -1.153898295082512e-08 0.012278095307556702" pbc="T T F"
H        1.40307756       0.81006721      20.00000000        3       1.00000000       0.00000000       0.00000000       0.00000000       0.00000000       0.00000000       0.00000000
H        4.20923268       0.81006721      20.00000000        3       1.00000000       0.00000000       0.00000000       0.00000000       0.00000000       0.00000000       0.00000000
H        0.00000000       3.24026883      20.00000000        3       1.00000000       0.00000000       0.00000000       0.00000000       0.00000000       0.00000000       0.00000000
H        2.80615512       3.24026883      20.00000000        3       1.00000000       0.00000000       0.00000000       0.00000000       0.00000000       0.00000000       0.00000000
H        0.00000000       1.62013441      22.29121606        2       1.00000000       0.00000000       0.00000000       0.00000000       0.00000000       0.00000000       0.00000000
H        2.80615512       1.62013441      22.29121606        2       1.00000000       0.00000000       0.00000000       0.00000000       0.00000000       0.00000000       0.00000000
H        1.40307756       4.05033604      22.29121606        2       1.00000000       0.00000000       0.00000000       0.00000000       0.00000000       0.00000000       0.00000000
H        4.20923268       4.05033604      22.29121606        2       1.00000000       0.00000000       0.00000000       0.00000000       0.00000000       0.00000000       0.00000000
H        0.00000000       0.00000000      24.58243212        1       1.00000000       0.00000000       0.00000000       0.00000000       0.00000000       0.00000000       0.00000000
H        2.80615512       0.00000000      24.58243212        1       1.00000000       0.00000000       0.00000000       0.00000000       0.00000000       0.00000000       0.00000000
H        1.40307756       2.43020162      24.58243212        1       1.00000000       0.00000000       0.00000000       0.00000000       0.00000000       0.00000000       0.00000000
H        4.20923268       2.43020162      24.58243212        1       1.00000000       0.00000000       0.00000000       0.00000000       0.00000000       0.00000000       0.00000000
H        4.21916409       4.05019001      26.81113054        0       1.00000000      -0.00000001      -0.00000009      -0.00000173       0.00000043       0.00000325       0.00000314
H        4.20923201       4.05033556      17.77136733        0       1.00000000      -0.00000091       0.00000009      -0.00000059       0.00038575      -0.00180513       0.00000068
H        2.79622394       1.61998774      26.81113055        0       1.00000000       0.00000058       0.00000031      -0.00000033      -0.00000023      -0.00000387      -0.00000378
H        2.80615526       1.62013439      17.77136675        0       1.00000000      -0.00000100      -0.00000057       0.00000003       0.00229643       0.00178082      -0.00000068
H       -0.00000026       1.62013392      17.77136710        0       1.00000000       0.00000024      -0.00000067      -0.00000015      -0.00229299       0.00183781      -0.00000185
H        1.40307714       4.05033570      17.77136747        0       1.00000000      -0.00000100       0.00000080      -0.00000108      -0.00038729      -0.00181498      -0.00000535
18
Lattice="5.612310241546866 0.0 0.0 0.0 4.860403243099165 0.0 0.0 0.0 44.58243212332868" Properties=species:S:1:pos:R:3:tags:I:1:masses:R:1:momenta:R:3:forces:R:3 KEmax=23.26679191048647 iter=239999 volume=1216.1236359717223 ns_energy=-11.638031575016091 last_walked_iter_clone=239935 energy=-11.638029429044481 stress="0.022584181619595377 -2.4524826649088862e-08 1.53651152681899e-08 -2.4524826649088862e-08 0.022698543978265418 -1.153898295082512e-08 1.53651152681899e-08 -1.153898295082512e-08 0.012278095307556702" pbc="T T F"
H        1.40307756       0.81006721      20.00000000        3       1.00000000       0.00000000       0.00000000       0.00000000       0.00000000       0.00000000       0.00000000
H        4.20923268       0.81006721      20.00000000        3       1.00000000       0.00000000       0.00000000       0.00000000       0.00000000       0.00000000       0.00000000
H        0.00000000       3.24026883      20.00000000        3       1.00000000       0.00000000       0.00000000       0.00000000       0.00000000       0.00000000       0.00000000
H        2.80615512       3.24026883      20.00000000        3       1.00000000       0.00000000       0.00000000       0.00000000       0.00000000       0.00000000       0.00000000
H        0.00000000       1.62013441      22.29121606        2       1.00000000       0.00000000       0.00000000       0.00000000       0.00000000       0.00000000       0.00000000
H        2.80615512       1.62013441      22.29121606        2       1.00000000       0.00000000       0.00000000       0.00000000       0.00000000       0.00000000       0.00000000
H        1.40307756       4.05033604      22.29121606        2       1.00000000       0.00000000       0.00000000       0.00000000       0.00000000       0.00000000       0.00000000
H        4.20923268       4.05033604      22.29121606        2       1.00000000       0.00000000       0.00000000       0.00000000       0.00000000       0.00000000       0.00000000
H        0.00000000       0.00000000      24.58243212        1       1.00000000       0.00000000       0.00000000       0.00000000       0.00000000       0.00000000       0.00000000
H        2.80615512       0.00000000      24.58243212        1       1.00000000       0.00000000       0.00000000       0.00000000       0.00000000       0.00000000       0.00000000
H        1.40307756       2.43020162      24.58243212        1       1.00000000       0.00000000       0.00000000       0.00000000       0.00000000       0.00000000       0.00000000
H        4.20923268       2.43020162      24.58243212        1       1.00000000       0.00000000       0.00000000       0.00000000       0.00000000       0.00000000       0.00000000
H        4.21916337       4.05018938      26.81113060        0       1.00000000       0.00000036      -0.00000003      -0.00000018       0.00000043       0.00000325       0.00000314
H        4.20923269       4.05033637      17.77136683        0       1.00000000       0.00000098      -0.00000098       0.00000071       0.00038575      -0.00180513       0.00000068
H        2.79622287       1.61998776      26.81113093        0       1.00000000      -0.00000059       0.00000060      -0.00000068      -0.00000023      -0.00000387      -0.00000378