18
Lattice="5.612310241546866 0.0 0.0 0.0 4.860403243099165 0.0 0.0 0.0 44.58243212332868" Properties=species:S:1:pos:R:3:tags:I:1:masses:R:1:momenta:R:3:forces:R:3 KEmax=23.26679191048647 iter=231676 volume=1216.1236359717223 ns_energy=-11.638031575015624 last_walked_iter_clone=226037 energy=-11.638031575016724 stress="0.022584264021301294 -6.065331160530931e-09 1.3128022635819136e-08 -6.065331160530931e-09 0.022698647786841733 2.4500039716698168e-08 1.3128022635819136e-08 2.4500039716698168e-08 0.012278162366329923" pbc="T T F"
H        1.40307756       0.81006721      20.00000000        3       1.00000000       0.00000000       0.00000000       0.00000000       0.00000000       0.00000000       0.00000000
H        4.20923268       0.81006721      20.00000000        3       1.00000000       0.00000000       0.00000000       0.00000000       0.00000000       0.00000000       0.00000000
H        0.00000000       3.24026883      20.00000000        3       1.00000000       0.00000000       0.00000000       0.00000000       0.00000000       0.00000000       0.00000000
H        2.80615512       3.24026883      20.00000000        3       1.00000000       0.00000000       0.00000000       0.00000000       0.00000000       0.00000000       0.00000000
H        0.00000000       1.62013441      22.29121606        2       1.00000000       0.00000000       0.00000000       0.00000000       0.00000000       0.00000000       0.00000000
H        2.80615512       1.62013441      22.29121606        2       1.00000000       0.00000000       0.00000000       0.00000000       0.00000000       0.00000000       0.00000000
H        1.40307756       4.05033604      22.29121606        2       1.00000000       0.00000000       0.00000000       0.00000000       0.00000000       0.00000000       0.00000000
H        4.20923268       4.05033604      22.29121606        2       1.00000000       0.00000000       0.00000000       0.00000000       0.00000000       0.00000000       0.00000000
H        0.00000000       0.00000000      24.58243212        1       1.00000000       0.00000000       0.00000000       0.00000000       0.00000000       0.00000000       0.00000000
H        2.80615512       0.00000000      24.58243212        1       1.00000000       0.00000000       0.00000000       0.00000000       0.00000000       0.00000000       0.00000000
H        1.40307756       2.43020162      24.58243212        1       1.00000000       0.00000000       0.00000000       0.00000000       0.00000000       0.00000000       0.00000000
H        4.20923268       2.43020162      24.58243212        1       1.00000000       0.00000000       0.00000000       0.00000000       0.00000000       0.00000000       0.00000000
H        4.21916455       4.05018932      26.81113068        0       1.00000000      -0.00000012      -0.00000062       0.00000134       0.00000017      -0.00000044      -0.00000091
H        4.20923312       4.05033553      17.77136718        0       1.00000000      -0.00000013       0.00000051      -0.00000055      -0.00000110       0.00000039       0.00000235
H        2.79622281       1.61998699      26.81113022        0       1.00000000      -0.00000053      -0.00000047      -0.00000002      -0.00000026      -0.00000024      -0.00000059
H        2.80615560       1.62013434      17.77136721        0       1.00000000       0.00000103       0.00000017      -0.00000128      -0.00000136       0.00000214      -0.00000090
H        5.61231035       1.62013440      17.77136777        0       1.00000000      -0.00000004       0.00000004      -0.00000082       0.00000114       0.00000203      -0.00000089
H        1.40307803       4.05033628      17.77136722        0       1.00000000       0.00000064       0.00000078       0.00000017       0.00000268      -0.00000210      -0.00000096
18
Lattice="5.612310241546866 0.0 0.0 0.0 4.860403243099165 0.0 0.0 0.0 44.58243212332868" Properties=species:S:1:pos:R:3:tags:I:1:masses:R:1:momenta:R:3:forces:R:3 KEmax=23.26679191048647 iter=231676 volume=1216.1236359717223 ns_energy=-11.638031575015635 last_walked_iter_clone=230371 energy=-11.638031575016724 stress="0.022584264021301294 -6.065331160530931e-09 1.3128022635819136e-08 -6.065331160530931e-09 0.022698647786841733 2.4500039716698168e-08 1.3128022635819136e-08 2.4500039716698168e-08 0.012278162366329923" pbc="T T F"
H        1.40307756       0.81006721      20.00000000        3       1.00000000       0.00000000       0.00000000       0.00000000       0.00000000       0.00000000       0.00000000
H        4.20923268       0.81006721      20.00000000        3       1.00000000       0.00000000       0.00000000       0.00000000       0.00000000       0.00000000       0.00000000
H        0.00000000       3.24026883      20.00000000        3       1.00000000       0.00000000       0.00000000       0.00000000       0.00000000       0.00000000       0.00000000
H        2.80615512       3.24026883      20.00000000        3       1.00000000       0.00000000       0.00000000       0.00000000       0.00000000       0.00000000       0.00000000
H        0.00000000       1.62013441      22.29121606        2       1.00000000       0.00000000       0.00000000       0.00000000       0.00000000       0.00000000       0.00000000
H        2.80615512       1.62013441      22.29121606        2       1.00000000       0.00000000       0.00000000       0.00000000       0.00000000       0.00000000       0.00000000
H        1.40307756       4.05033604      22.29121606        2       1.00000000       0.00000000       0.00000000       0.00000000       0.00000000       0.00000000       0.00000000
H        4.20923268       4.05033604      22.29121606        2       1.00000000       0.00000000       0.00000000       0.00000000       0.00000000       0.00000000       0.00000000
H        0.00000000       0.00000000      24.58243212        1       1.00000000       0.00000000       0.00000000       0.00000000       0.00000000       0.00000000       0.00000000
H        2.80615512       0.00000000      24.58243212        1       1.00000000       0.00000000       0.00000000       0.00000000       0.00000000       0.00000000       0.00000000
H        1.40307756       2.43020162      24.58243212        1       1.00000000       0.00000000       0.00000000       0.00000000       0.00000000       0.00000000       0.00000000
H        4.20923268       2.43020162      24.58243212        1       1.00000000       0.00000000       0.00000000       0.00000000       0.00000000       0.00000000       0.00000000
H        4.21916401       4.05018869      26.81113024        0       1.00000000       0.00000040      -0.00000118       0.00000081       0.00000017      -0.00000044      -0.00000091
H        4.20923289       4.05033654      17.77136694        0       1.00000000       0.00000027       0.00000059       0.00000106      -0.00000110       0.00000039       0.00000235
H        2.79622425       1.61998663      26.81113070        0       1.00000000      -0.00000042      -0.00000091      -0.00000020      -0.00000026      -0.00000024      -0.00000059
H        2.80615566       1.62013503      17.77136659        0       1.00000000      -0.00000069      -0.00000052       0.00000101      -0.00000136       0.00000214      -0.00000090
H        0.00000031       1.62013508      17.77136714        0       1.00000000       0.00000149      -0.00000077      -0.00000046       0.00000114       0.00000203      -0.00000089
H        1.40307763       4.05033690      17.77136751        0       1.00000000      -0.00000049      -0.00000034       0.00000039       0.00000268      -0.00000210      -0.00000096
18
Lattice="5.612310241546866 0.0 0.0 0.0 4.860403243099165 0.0 0.0 0.0 44.58243212332868" Properties=species:S:1:pos:R:3:tags:I:1:masses:R:1:momenta:R:3:forces:R:3 KEmax=23.26679191048647 iter=231676 volume=1216.1236359717223 ns_energy=-11.638031575015505 last_walked_iter_clone=230503 energy=-11.638031575016724 stress="0.022584264021301294 -6.065331160530931e-09 1.3128022635819136e-08 -6.065331160530931e-09 0.022698647786841733 2.4500039716698168e-08 1.3128022635819136e-08 2.4500039716698168e-08 0.012278162366329923" pbc="T T F"
H        1.40307756       0.81006721      20.00000000        3       1.00000000       0.00000000       0.00000000       0.00000000       0.00000000       0.00000000       0.00000000
H        4.20923268       0.81006721      20.00000000        3       1.00000000       0.00000000       0.00000000       0.00000000       0.00000000       0.00000000       0.00000000
H        0.00000000       3.24026883      20.00000000        3       1.00000000       0.00000000       0.00000000       0.00000000       0.00000000       0.00000000       0.00000000
H        2.80615512       3.24026883      20.00000000        3       1.00000000       0.00000000       0.00000000       0.00000000       0.00000000       0.00000000       0.00000000
H        0.00000000       1.62013441      22.29121606        2       1.00000000       0.00000000       0.00000000       0.00000000       0.00000000       0.00000000       0.00000000
H        2.80615512       1.62013441      22.29121606        2       1.00000000       0.00000000       0.00000000       0.00000000       0.00000000       0.00000000       0.00000000
H        1.40307756       4.05033604      22.29121606        2       1.00000000       0.00000000       0.00000000       0.00000000       0.00000000       0.00000000       0.00000000
H        4.20923268       4.05033604      22.29121606        2       1.00000000       0.00000000       0.00000000       0.00000000       0.00000000       0.00000000       0.00000000
H        0.00000000       0.00000000      24.58243212        1       1.00000000       0.00000000       0.00000000       0.00000000       0.00000000       0.00000000       0.00000000
H        2.80615512       0.00000000      24.58243212        1       1.00000000       0.00000000       0.00000000       0.00000000       0.00000000       0.00000000       0.00000000
H        1.40307756       2.43020162      24.58243212        1       1.00000000       0.00000000       0.00000000       0.00000000       0.00000000       0.00000000       0.00000000
H        4.20923268       2.43020162      24.58243212        1       1.00000000       0.00000000       0.00000000       0.00000000       0.00000000       0.00000000       0.00000000
H        4.21916345       4.05018940      26.81113000        0       1.00000000       0.00000016       0.00000140       0.00000027       0.00000017      -0.00000044      -0.00000091
H        4.20923220       4.05033516      17.77136667        0       1.00000000      -0.00000035       0.00000040      -0.00000106      -0.00000110       0.00000039       0.00000235
H        2.79622372       1.61998779      26.81113080        0       1.00000000      -0.00000058      -0.00000025      -0.00000064      -0.00000026      -0.00000024      -0.00000059
H        2.80615520       1.62013383      17.77136763        0       1.00000000       0.00000018      -0.00000014      -0.00000011      -0.00000136       0.00000214      -0.00000090
H       -0.00000006       1.62013354      17.77136667        0       1.00000000      -0.00000073       0.00000082       0.00000081       0.00000114       0.00000203      -0.00000089
H        1.40307705       4.05033478      17.77136665        0       1.00000000      -0.00000035       0.00000039       0.00000087       0.00000268      -0.00000210      -0.00000096
18
Lattice="5.612310241546866 0.0 0.0 0.0 4.860403243099165 0.0 0.0 0.0 44.58243212332868" Properties=species:S:1:pos:R:3:tags:I:1:masses:R:1:momenta:R:3:forces:R:3 KEmax=23.26679191048647 iter=231676 volume=1216.1236359717223 ns_energy=-11.638031575015663 last_walked_iter_clone=231449 energy=-11.638031575016724 stress="0.022584264021301294 -6.065331160530931e-09 1.3128022635819136e-08 -6.065331160530931e-09 0.022698647786841733 2.4500039716698168e-08 1.3128022635819136e-08 2.4500039716698168e-08 0.012278162366329923" pbc="T T F"
H        1.40307756       0.81006721      20.00000000        3       1.00000000       0.00000000       0.00000000       0.00000000       0.00000000       0.00000000       0.00000000
H        4.20923268       0.81006721      20.00000000        3       1.00000000       0.00000000       0.00000000       0.00000000       0.00000000       0.00000000       0.00000000
H        0.00000000       3.24026883      20.00000000        3       1.00000000       0.00000000       0.00000000       0.00000000       0.00000000       0.00000000       0.00000000
H        2.80615512       3.24026883      20.00000000        3       1.00000000       0.00000000       0.00000000       0.00000000       0.00000000       0.00000000       0.00000000
H        0.00000000       1.62013441      22.29121606        2       1.00000000       0.00000000       0.00000000       0.00000000       0.00000000       0.00000000       0.00000000
H        2.80615512       1.62013441      22.29121606        2       1.00000000       0.00000000       0.00000000       0.00000000       0.00000000       0.00000000       0.00000000
H        1.40307756       4.05033604      22.29121606        2       1.00000000       0.00000000       0.00000000       0.00000000       0.00000000       0.00000000       0.00000000
H        4.20923268       4.05033604      22.29121606        2       1.00000000       0.00000000       0.00000000       0.00000000       0.00000000       0.00000000       0.00000000
H        0.00000000       0.00000000      24.58243212        1       1.00000000       0.00000000       0.00000000       0.00000000       0.00000000       0.00000000       0.00000000
H        2.80615512       0.00000000      24.58243212        1       1.00000000       0.00000000       0.00000000       0.00000000       0.00000000       0.00000000       0.00000000
H        1.40307756       2.43020162      24.58243212        1       1.00000000       0.00000000       0.00000000       0.00000000       0.00000000       0.00000000       0.00000000
H        4.20923268       2.43020162      24.58243212        1       1.00000000       0.00000000       0.00000000       0.00000000       0.00000000       0.00000000       0.00000000
H        4.21916337       4.05018941      26.81113045        0       1.00000000       0.00000024      -0.00000079      -0.00000009       0.00000017      -0.00000044      -0.00000091
H        4.20923228       4.05033697      17.77136667        0       1.00000000       0.00000032       0.00000076       0.00000010      -0.00000110       0.00000039       0.00000235
H        2.79622401       1.61998844      26.81113057        0       1.00000000       0.00000043      -0.00000005      -0.00000120      -0.00000026      -0.00000024      -0.00000059
H        2.80615538       1.62013574      17.77136713        0       1.00000000       0.00000011      -0.00000060      -0.00000124      -0.00000136       0.00000214      -0.00000090
H        0.00000016       1.62013562      17.77136777        0       1.00000000       0.00000002      -0.00000056       0.00000002       0.00000114       0.00000203      -0.00000089
H        1.40307765       4.05033671      17.77136676        0       1.00000000       0.00000039       0.00000034       0.00000095       0.00000268      -0.00000210      -0.00000096
18
Lattice="5.612310241546866 0.0 0.0 0.0 4.860403243099165 0.0 0.0 0.0 44.58243212332868" Properties=species:S:1:pos:R:3:tags:I:1:masses:R:1:momenta:R:3:forces:R:3 KEmax=23.26679191048647 iter=231676 volume=1216.1236359717223 ns_energy=-11.638031575015718 last_walked_iter_clone=231178 energy=-11.638031575016724 stress="0.022584264021301294 -6.065331160530931e-09 1.3128022635819136e-08 -6.065331160530931e-09 0.022698647786841733 2.4500039716698168e-08 1.3128022635819136e-08 2.4500039716698168e-08 0.012278162366329923" pbc="T T F"
H        1.40307756       0.81006721      20.00000000        3       1.00000000       0.00000000       0.00000000       0.00000000       0.00000000       0.00000000       0.00000000
H        4.20923268       0.81006721      20.00000000        3       1.00000000       0.00000000       0.00000000       0.00000000       0.00000000       0.00000000       0.00000000
H        0.00000000       3.24026883      20.00000000        3       1.00000000       0.00000000       0.00000000       0.00000000       0.00000000       0.00000000       0.00000000
H        2.80615512       3.24026883      20.00000000        3       1.00000000       0.00000000       0.00000000       0.00000000       0.00000000       0.00000000       0.00000000
H        0.00000000       1.62013441      22.29121606        2       1.00000000       0.00000000       0.00000000       0.00000000       0.00000000       0.00000000       0.00000000
H        2.80615512       1.62013441      22.29121606        2       1.00000000       0.00000000       0.00000000       0.00000000       0.00000000       0.00000000       0.00000000
H        1.40307756       4.05033604      22.29121606        2       1.00000000       0.00000000       0.00000000       0.00000000       0.00000000       0.00000000       0.00000000
H        4.20923268       4.05033604      22.29121606        2       1.00000000       0.00000000       0.00000000       0.00000000       0.00000000       0.00000000       0.00000000
H        0.00000000       0.00000000      24.58243212        1       1.00000000       0.00000000       0.00000000       0.00000000       0.00000000       0.00000000       0.00000000
H        2.80615512       0.00000000      24.58243212        1       1.00000000       0.00000000       0.00000000       0.00000000       0.00000000       0.00000000       0.00000000
H        1.40307756       2.43020162      24.58243212        1       1.00000000       0.00000000       0.00000000       0.00000000       0.00000000       0.00000000       0.00000000
H        4.20923268       2.43020162      24.58243212        1       1.00000000       0.00000000       0.00000000       0.00000000       0.00000000       0.00000000       0.00000000
H        4.21916391       4.05018920      26.81113039        0       1.00000000       0.00000041      -0.00000058       0.00000035       0.00000017      -0.00000044      -0.00000091
H        4.20923242       4.05033648      17.77136704        0       1.00000000      -0.00000064      -0.00000067       0.00000015      -0.00000110       0.00000039       0.00000235
H        2.79622408       1.61998667      26.81113055        0       1.00000000      -0.00000003      -0.00000008       0.00000031      -0.00000026      -0.00000024      -0.00000059
H        2.80615538       1.62013489      17.77136714        0       1.00000000       0.00000124      -0.00000015      -0.00000209      -0.00000136       0.00000214      -0.00000090
H        5.61231047       1.62013511      17.77136754        0       1.00000000       0.00000063      -0.00000048       0.00000024       0.00000114       0.00000203      -0.00000089
H        1.40307800       4.05033586      17.77136705        0       1.00000000       0.00000010      -0.00000045       0.00000034       0.00000268      -0.00000210      -0.00000096
18
Lattice="5.612310241546866 0.0 0.0 0.0 4.860403243099165 0.0 0.0 0.0 44.58243212332868" Properties=species:S:1:pos:R:3:tags:I:1:masses:R:1:momenta:R:3:forces:R:3 KEmax=23.26679191048647 iter=231676 volume=1216.1236359717223 ns_energy=-11.638031575015674 last_walked_iter_clone=230372 energy=-11.638031575016724 stress="0.022584264021301294 -6.065331160530931e-09 1.3128022635819136e-08 -6.065331160530931e-09 0.022698647786841733 2.4500039716698168e-08 1.3128022635819136e-08 2.4500039716698168e-08 0.012278162366329923" pbc="T T F"
H        1.40307756       0.81006721      20.00000000        3       1.00000000       0.00000000       0.00000000       0.00000000       0.00000000       0.00000000       0.00000000
H        4.20923268       0.81006721      20.00000000        3       1.00000000       0.00000000       0.00000000       0.00000000       0.00000000       0.00000000       0.00000000
H        0.00000000       3.24026883      20.00000000        3       1.00000000       0.00000000       0.00000000       0.00000000       0.00000000       0.00000000       0.00000000
H        2.80615512       3.24026883      20.00000000        3       1.00000000       0.00000000       0.00000000       0.00000000       0.00000000       0.00000000       0.00000000
H        0.00000000       1.62013441      22.29121606        2       1.00000000       0.00000000       0.00000000       0.00000000       0.00000000       0.00000000       0.00000000
H        2.80615512       1.62013441      22.29121606        2       1.00000000       0.00000000       0.00000000       0.00000000       0.00000000       0.00000000       0.00000000
H        1.40307756       4.05033604      22.29121606        2       1.00000000       0.00000000       0.00000000       0.00000000       0.00000000       0.00000000       0.00000000
H        4.20923268       4.05033604      22.29121606        2       1.00000000       0.00000000       0.00000000       0.00000000       0.00000000       0.00000000       0.00000000
H        0.00000000       0.00000000      24.58243212        1       1.00000000       0.00000000       0.00000000       0.00000000       0.00000000       0.00000000       0.00000000
H        2.80615512       0.00000000      24.58243212        1       1.00000000       0.00000000       0.00000000       0.00000000       0.00000000       0.00000000       0.00000000
H        1.40307756       2.43020162      24.58243212        1       1.00000000       0.00000000       0.00000000       0.00000000       0.00000000       0.00000000       0.00000000
H        4.20923268       2.43020162      24.58243212        1       1.00000000       0.00000000       0.00000000       0.00000000       0.00000000       0.00000000       0.00000000
H        4.21916357       4.05018931      26.81113058        0       1.00000000      -0.00000040       0.00000021       0.00000016       0.00000017      -0.00000044      -0.00000091
H        4.20923239       4.05033554      17.77136692        0       1.00000000      -0.00000186      -0.00000000      -0.00000080      -0.00000110       0.00000039       0.00000235
H        2.79622418       1.61998862      26.81113083        0       1.00000000      -0.00000008       0.00000042       0.00000017      -0.00000026      -0.00000024      -0.00000059
H        2.80615564       1.62013328      17.77136702        0       1.00000000       0.00000024      -0.00000126       0.00000006      -0.00000136       0.00000214      -0.00000090
H        0.00000027       1.62013382      17.77136712        0       1.00000000      -0.00000030      -0.00000032       0.00000053       0.00000114       0.00000203      -0.00000089
H        1.40307721       4.05033529      17.77136641        0       1.00000000      -0.00000046       0.00000051       0.00000039       0.00000268      -0.00000210      -0.00000096
18
Lattice="5.612310241546866 0.0 0.0 0.0 4.860403243099165 0.0 0.0 0.0 44.58243212332868" Properties=species:S:1:pos:R:3:tags:I:1:masses:R:1:momenta:R:3:forces:R:3 KEmax=23.26679191048647 iter=231676 volume=1216.1236359717223 ns_energy=-11.63803157501552 last_walked_iter_clone=231102 energy=-11.638031575016724 stress="0.022584264021301294 -6.065331160530931e-09 1.3128022635819136e-08 -6.065331160530931e-09 0.022698647786841733 2.4500039716698168e-08 1.3128022635819136e-08 2.4500039716698168e-08 0.012278162366329923" pbc="T T F"
H        1.40307756       0.81006721      20.00000000        3       1.00000000       0.00000000       0.00000000       0.00000000       0.00000000       0.00000000       0.00000000
H        4.20923268       0.81006721      20.00000000        3       1.00000000       0.00000000       0.00000000       0.00000000       0.00000000       0.00000000       0.00000000
H        0.00000000       3.24026883      20.00000000        3       1.00000000       0.00000000       0.00000000       0.00000000       0.00000000       0.00000000       0.00000000
H        2.80615512       3.24026883      20.00000000        3       1.00000000       0.00000000       0.00000000       0.00000000       0.00000000       0.00000000       0.00000000
H        0.00000000       1.62013441      22.29121606        2       1.00000000       0.00000000       0.00000000       0.00000000       0.00000000       0.00000000       0.00000000
H        2.80615512       1.62013441      22.29121606        2       1.00000000       0.00000000       0.00000000       0.00000000       0.00000000       0.00000000       0.00000000
H        1.40307756       4.05033604      22.29121606        2       1.00000000       0.00000000       0.00000000       0.00000000       0.00000000       0.00000000       0.00000000
H        4.20923268       4.05033604      22.29121606        2       1.00000000       0.00000000       0.00000000       0.00000000       0.00000000       0.00000000       0.00000000
H        0.00000000       0.00000000      24.58243212        1       1.00000000       0.00000000       0.00000000       0.00000000       0.00000000       0.00000000       0.00000000
H        2.80615512       0.00000000      24.58243212        1       1.00000000       0.00000000       0.00000000       0.00000000       0.00000000       0.00000000       0.00000000
H        1.40307756       2.43020162      24.58243212        1       1.00000000       0.00000000       0.00000000       0.00000000       0.00000000       0.00000000       0.00000000
H        4.20923268       2.43020162      24.58243212        1       1.00000000       0.00000000       0.00000000       0.00000000       0.00000000       0.00000000       0.00000000
H        4.21916373       4.05018983      26.81113058        0       1.00000000      -0.00000013       0.00000150      -0.00000056       0.00000017      -0.00000044      -0.00000091
H        4.20923290       4.05033621      17.77136690        0       1.00000000      -0.00000073      -0.00000072       0.00000015      -0.00000110       0.00000039       0.00000235
H        2.79622472       1.61998811      26.81113077        0       1.00000000       0.00000061       0.00000014       0.00000020      -0.00000026      -0.00000024      -0.00000059
H        2.80615562       1.62013421      17.77136664        0       1.00000000       0.00000014      -0.00000070       0.00000098      -0.00000136       0.00000214      -0.00000090
H        0.00000008       1.62013421      17.77136732        0       1.00000000      -0.00000064      -0.00000067       0.00000028       0.00000114       0.00000203      -0.00000089
H        1.40307739       4.05033539      17.77136623        0       1.00000000      -0.00000054       0.00000011      -0.00000123       0.00000268      -0.00000210      -0.00000096
18
Lattice="5.612310241546866 0.0 0.0 0.0 4.860403243099165 0.0 0.0 0.0 44.58243212332868" Properties=species:S:1:pos:R:3:tags:I:1:masses:R:1:momenta:R:3:forces:R:3 KEmax=23.26679191048647 iter=231676 volume=1216.1236359717223 ns_energy=-11.638031575015733 last_walked_iter_clone=231543 energy=-11.638031575016724 stress="0.022584264021301294 -6.065331160530931e-09 1.3128022635819136e-08 -6.065331160530931e-09 0.022698647786841733 2.4500039716698168e-08 1.3128022635819136e-08 2.4500039716698168e-08 0.012278162366329923" pbc="T T F"
H        1.40307756       0.81006721      20.00000000        3       1.00000000       0.00000000       0.00000000       0.00000000       0.00000000       0.00000000       0.00000000
H        4.20923268       0.81006721      20.00000000        3       1.00000000       0.00000000       0.00000000       0.00000000       0.00000000       0.00000000       0.00000000
H        0.00000000       3.24026883      20.00000000        3       1.00000000       0.00000000       0.00000000       0.00000000       0.00000000       0.00000000       0.00000000
H        2.80615512       3.24026883      20.00000000        3       1.00000000       0.00000000       0.00000000       0.00000000       0.00000000       0.00000000       0.00000000
H        0.00000000       1.62013441      22.29121606        2       1.00000000       0.00000000       0.00000000       0.00000000       0.00000000       0.00000000       0.00000000
H        2.80615512       1.62013441      22.29121606        2       1.00000000       0.00000000       0.00000000       0.00000000       0.00000000       0.00000000       0.00000000
H        1.40307756       4.05033604      22.29121606        2       1.00000000       0.00000000       0.00000000       0.00000000       0.00000000       0.00000000       0.00000000
H        4.20923268       4.05033604      22.29121606        2       1.00000000       0.00000000       0.00000000       0.00000000       0.00000000       0.00000000       0.00000000
H        0.00000000       0.00000000      24.58243212        1       1.00000000       0.00000000       0.00000000       0.00000000       0.00000000       0.00000000       0.00000000
H        2.80615512       0.00000000      24.58243212        1       1.00000000       0.00000000       0.00000000       0.00000000       0.00000000       0.00000000       0.00000000
H        1.40307756       2.43020162      24.58243212        1       1.00000000       0.00000000       0.00000000       0.00000000       0.00000000       0.00000000       0.00000000
H        4.20923268       2.43020162      24.58243212        1       1.00000000       0.00000000       0.00000000       0.00000000       0.00000000       0.00000000       0.00000000
H        4.21916409       4.05019001      26.81113054        0       1.00000000      -0.00000022      -0.00000008      -0.00000047       0.00000017      -0.00000044      -0.00000091
H        4.20923201       4.05033556      17.77136733        0       1.00000000      -0.00000033      -0.00000042       0.00000016      -0.00000110       0.00000039       0.00000235
H        2.79622394       1.61998774      26.81113055        0       1.00000000      -0.00000006       0.00000037       0.00000038      -0.00000026      -0.00000024      -0.00000059