19
Lattice="5.612310241546866 0.0 0.0 0.0 4.860403243099165 0.0 0.0 0.0 24.582432123328676" Properties=species:S:1:pos:R:3:tags:I:1:masses:R:1:momenta:R:3:forces:R:3 KEmax=24.559391461069055 iter=239999 volume=670.5618179858607 ns_energy=-12.523476319911985 last_walked_iter_clone=239604 energy=-12.523473558182838 stress="0.02400408489668658 -1.1638567506436389e-08 2.05744880750301e-08 -1.1638567506436389e-08 0.024129683692469543 -2.490336671690085e-08 2.05744880750301e-08 -2.490336671690085e-08 0.012739409067778531" pbc="T T F"
H        1.40307756       0.81006721      10.00000000        3       1.00000000       0.00000000       0.00000000       0.00000000       0.00000000       0.00000000       0.00000000
H        4.20923268       0.81006721      10.00000000        3       1.00000000       0.00000000       0.00000000       0.00000000       0.00000000       0.00000000       0.00000000
H        0.00000000       3.24026883      10.00000000        3       1.00000000       0.00000000       0.00000000       0.00000000       0.00000000       0.00000000       0.00000000
H        2.80615512       3.24026883      10.00000000        3       1.00000000       0.00000000       0.00000000       0.00000000       0.00000000       0.00000000       0.00000000
H        0.00000000       1.62013441      12.29121606        2       1.00000000       0.00000000       0.00000000       0.00000000       0.00000000       0.00000000       0.00000000
H        2.80615512       1.62013441      12.29121606        2       1.00000000       0.00000000       0.00000000       0.00000000       0.00000000       0.00000000       0.00000000
H        1.40307756       4.05033604      12.29121606        2       1.00000000       0.00000000       0.00000000       0.00000000       0.00000000       0.00000000       0.00000000
H        4.20923268       4.05033604      12.29121606        2       1.00000000       0.00000000       0.00000000       0.00000000       0.00000000       0.00000000       0.00000000
H        0.00000000       0.00000000      14.58243212        1       1.00000000       0.00000000       0.00000000       0.00000000       0.00000000       0.00000000       0.00000000
H        2.80615512       0.00000000      14.58243212        1       1.00000000       0.00000000       0.00000000       0.00000000       0.00000000       0.00000000       0.00000000
H        1.40307756       2.43020162      14.58243212        1       1.00000000       0.00000000       0.00000000       0.00000000       0.00000000       0.00000000       0.00000000
H        4.20923268       2.43020162      14.58243212        1       1.00000000       0.00000000       0.00000000       0.00000000       0.00000000       0.00000000       0.00000000
H        0.00000021       1.62013533       7.77136740        0       1.00000000      -0.00000130       0.00000046       0.00000016      -0.00017030       0.00280760      -0.00000036
H        2.80919679       1.62012415      16.81107143        0       1.00000000       0.00000063       0.00000011       0.00000001       0.00085564      -0.00013849      -0.00000335
H        1.40307763       4.05033614       7.77136712        0       1.00000000       0.00000049       0.00000116      -0.00000074      -0.00006474      -0.00278212      -0.00000249
H        5.60926638       1.62012564      16.81107108        0       1.00000000      -0.00000017       0.00000131       0.00000014      -0.00085648      -0.00013881      -0.00000236
H        2.80615524       1.62013424       7.77136678        0       1.00000000      -0.00000047      -0.00000046       0.00000007       0.00017135       0.00278059      -0.00000125
H        1.40307683       4.05032753      16.81106417        0       1.00000000       0.00000078       0.00000019      -0.00000046      -0.00000123       0.00027974       0.00000207
H        4.20923246       4.05033644       7.77136700        0       1.00000000       0.00000048      -0.00000048      -0.00000008       0.00006390      -0.00280633       0.00000281
19
Lattice="5.612310241546866 0.0 0.0 0.0 4.860403243099165 0.0 0.0 0.0 24.582432123328676" Properties=species:S:1:pos:R:3:tags:I:1:masses:R:1:momenta:R:3:forces:R:3 KEmax=24.559391461069055 iter=239999 volume=670.5618179858607 ns_energy=-12.523476319911907 last_walked_iter_clone=237195 energy=-12.523473558182838 stress="0.02400408489668658 -1.1638567506436389e-08 2.05744880750301e-08 -1.1638567506436389e-08 0.024129683692469543 -2.490336671690085e-08 2.05744880750301e-08 -2.490336671690085e-08 0.012739409067778531" pbc="T T F"
H        1.40307756       0.81006721      10.00000000        3       1.00000000       0.00000000       0.00000000       0.00000000       0.00000000       0.00000000       0.00000000
H        4.20923268       0.81006721      10.00000000        3       1.00000000       0.00000000       0.00000000       0.00000000       0.00000000       0.00000000       0.00000000
H        0.00000000       3.24026883      10.00000000        3       1.00000000       0.00000000       0.00000000       0.00000000       0.00000000       0.00000000       0.00000000
H        2.80615512       3.24026883      10.00000000        3       1.00000000       0.00000000       0.00000000       0.00000000       0.00000000       0.00000000       0.00000000
H        0.00000000       1.62013441      12.29121606        2       1.00000000       0.00000000       0.00000000       0.00000000       0.00000000       0.00000000       0.00000000
H        2.80615512       1.62013441      12.29121606        2       1.00000000       0.00000000       0.00000000       0.00000000       0.00000000       0.00000000       0.00000000
H        1.40307756       4.05033604      12.29121606        2       1.00000000       0.00000000       0.00000000       0.00000000       0.00000000       0.00000000       0.00000000
H        4.20923268       4.05033604      12.29121606        2       1.00000000       0.00000000       0.00000000       0.00000000       0.00000000       0.00000000       0.00000000
H        0.00000000       0.00000000      14.58243212        1       1.00000000       0.00000000       0.00000000       0.00000000       0.00000000       0.00000000       0.00000000
H        2.80615512       0.00000000      14.58243212        1       1.00000000       0.00000000       0.00000000       0.00000000       0.00000000       0.00000000       0.00000000
H        1.40307756       2.43020162      14.58243212        1       1.00000000       0.00000000       0.00000000       0.00000000       0.00000000       0.00000000       0.00000000
H        4.20923268       2.43020162      14.58243212        1       1.00000000       0.00000000       0.00000000       0.00000000       0.00000000       0.00000000       0.00000000
H       -0.00000033       1.62013414       7.77136718        0       1.00000000      -0.00000003       0.00000049       0.00000078      -0.00017030       0.00280760      -0.00000036
H        2.80919775       1.62012484      16.81107155        0       1.00000000       0.00000078      -0.00000016       0.00000073       0.00085564      -0.00013849      -0.00000335
H        1.40307727       4.05033594       7.77136708        0       1.00000000      -0.00000099       0.00000058      -0.00000088      -0.00006474      -0.00278212      -0.00000249
H        5.60926720       1.62012403      16.81107187        0       1.00000000       0.00000039      -0.00000120      -0.00000056      -0.00085648      -0.00013881      -0.00000236
H        2.80615494       1.62013451       7.77136748        0       1.00000000       0.00000033      -0.00000062      -0.00000095       0.00017135       0.00278059      -0.00000125
H        1.40307638       4.05032800      16.81106530        0       1.00000000       0.00000053       0.00000014      -0.00000093      -0.00000123       0.00027974       0.00000207
H        4.20923261       4.05033539       7.77136687        0       1.00000000       0.00000031       0.00000133       0.00000125       0.00006390      -0.00280633       0.00000281
19
Lattice="5.612310241546866 0.0 0.0 0.0 4.860403243099165 0.0 0.0 0.0 24.582432123328676" Properties=species:S:1:pos:R:3:tags:I:1:masses:R:1:momenta:R:3:forces:R:3 KEmax=24.559391461069055 iter=239999 volume=670.5618179858607 ns_energy=-12.523476319912149 last_walked_iter_clone=238338 energy=-12.523473558182838 stress="0.02400408489668658 -1.1638567506436389e-08 2.05744880750301e-08 -1.1638567506436389e-08 0.024129683692469543 -2.490336671690085e-08 2.05744880750301e-08 -2.490336671690085e-08 0.012739409067778531" pbc="T T F"
H        1.40307756       0.81006721      10.00000000        3       1.00000000       0.00000000       0.00000000       0.00000000       0.00000000       0.00000000       0.00000000
H        4.20923268       0.81006721      10.00000000        3       1.00000000       0.00000000       0.00000000       0.00000000       0.00000000       0.00000000       0.00000000
H        0.00000000       3.24026883      10.00000000        3       1.00000000       0.00000000       0.00000000       0.00000000       0.00000000       0.00000000       0.00000000
H        2.80615512       3.24026883      10.00000000        3       1.00000000       0.00000000       0.00000000       0.00000000       0.00000000       0.00000000       0.00000000
H        0.00000000       1.62013441      12.29121606        2       1.00000000       0.00000000       0.00000000       0.00000000       0.00000000       0.00000000       0.00000000
H        2.80615512       1.62013441      12.29121606        2       1.00000000       0.00000000       0.00000000       0.00000000       0.00000000       0.00000000       0.00000000
H        1.40307756       4.05033604      12.29121606        2       1.00000000       0.00000000       0.00000000       0.00000000       0.00000000       0.00000000       0.00000000
H        4.20923268       4.05033604      12.29121606        2       1.00000000       0.00000000       0.00000000       0.00000000       0.00000000       0.00000000       0.00000000
H        0.00000000       0.00000000      14.58243212        1       1.00000000       0.00000000       0.00000000       0.00000000       0.00000000       0.00000000       0.00000000
H        2.80615512       0.00000000      14.58243212        1       1.00000000       0.00000000       0.00000000       0.00000000       0.00000000       0.00000000       0.00000000
H        1.40307756       2.43020162      14.58243212        1       1.00000000       0.00000000       0.00000000       0.00000000       0.00000000       0.00000000       0.00000000
H        4.20923268       2.43020162      14.58243212        1       1.00000000       0.00000000       0.00000000       0.00000000       0.00000000       0.00000000       0.00000000
H       -0.00000074       1.62013417       7.77136683        0       1.00000000      -0.00000016      -0.00000059       0.00000045      -0.00017030       0.00280760      -0.00000036
H        2.80919800       1.62012521      16.81107139        0       1.00000000       0.00000146       0.00000001      -0.00000074       0.00085564      -0.00013849      -0.00000335
H        1.40307734       4.05033668       7.77136679        0       1.00000000       0.00000027      -0.00000017       0.00000072      -0.00006474      -0.00278212      -0.00000249
H        5.60926681       1.62012586      16.81107145        0       1.00000000      -0.00000078       0.00000062       0.00000007      -0.00085648      -0.00013881      -0.00000236
H        2.80615470       1.62013395       7.77136711        0       1.00000000       0.00000019      -0.00000024      -0.00000048       0.00017135       0.00278059      -0.00000125
H        1.40307810       4.05032951      16.81106506        0       1.00000000      -0.00000044      -0.00000037      -0.00000015      -0.00000123       0.00027974       0.00000207
H        4.20923237       4.05033602       7.77136780        0       1.00000000      -0.00000100      -0.00000008      -0.00000029       0.00006390      -0.00280633       0.00000281
19
Lattice="5.612310241546866 0.0 0.0 0.0 4.860403243099165 0.0 0.0 0.0 24.582432123328676" Properties=species:S:1:pos:R:3:tags:I:1:masses:R:1:momenta:R:3:forces:R:3 KEmax=24.559391461069055 iter=239999 volume=670.5618179858607 ns_energy=-12.52347631991182 last_walked_iter_clone=239116 energy=-12.523473558182838 stress="0.02400408489668658 -1.1638567506436389e-08 2.05744880750301e-08 -1.1638567506436389e-08 0.024129683692469543 -2.490336671690085e-08 2.05744880750301e-08 -2.490336671690085e-08 0.012739409067778531" pbc="T T F"
H        1.40307756       0.81006721      10.00000000        3       1.00000000       0.00000000       0.00000000       0.00000000       0.00000000       0.00000000       0.00000000
H        4.20923268       0.81006721      10.00000000        3       1.00000000       0.00000000       0.00000000       0.00000000       0.00000000       0.00000000       0.00000000
H        0.00000000       3.24026883      10.00000000        3       1.00000000       0.00000000       0.00000000       0.00000000       0.00000000       0.00000000       0.00000000
H        2.80615512       3.24026883      10.00000000        3       1.00000000       0.00000000       0.00000000       0.00000000       0.00000000       0.00000000       0.00000000
H        0.00000000       1.62013441      12.29121606        2       1.00000000       0.00000000       0.00000000       0.00000000       0.00000000       0.00000000       0.00000000
H        2.80615512       1.62013441      12.29121606        2       1.00000000       0.00000000       0.00000000       0.00000000       0.00000000       0.00000000       0.00000000
H        1.40307756       4.05033604      12.29121606        2       1.00000000       0.00000000       0.00000000       0.00000000       0.00000000       0.00000000       0.00000000
H        4.20923268       4.05033604      12.29121606        2       1.00000000       0.00000000       0.00000000       0.00000000       0.00000000       0.00000000       0.00000000
H        0.00000000       0.00000000      14.58243212        1       1.00000000       0.00000000       0.00000000       0.00000000       0.00000000       0.00000000       0.00000000
H        2.80615512       0.00000000      14.58243212        1       1.00000000       0.00000000       0.00000000       0.00000000       0.00000000       0.00000000       0.00000000
H        1.40307756       2.43020162      14.58243212        1       1.00000000       0.00000000       0.00000000       0.00000000       0.00000000       0.00000000       0.00000000
H        4.20923268       2.43020162      14.58243212        1       1.00000000       0.00000000       0.00000000       0.00000000       0.00000000       0.00000000       0.00000000
H        0.00000027       1.62013389       7.77136757        0       1.00000000      -0.00000001      -0.00000070       0.00000114      -0.00017030       0.00280760      -0.00000036
H        2.80919745       1.62012444      16.81107183        0       1.00000000       0.00000008      -0.00000015      -0.00000107       0.00085564      -0.00013849      -0.00000335
H        1.40307863       4.05033548       7.77136711        0       1.00000000       0.00000064       0.00000044      -0.00000029      -0.00006474      -0.00278212      -0.00000249
H        5.60926744       1.62012407      16.81107086        0       1.00000000      -0.00000050       0.00000010       0.00000024      -0.00085648      -0.00013881      -0.00000236
H        2.80615520       1.62013422       7.77136747        0       1.00000000       0.00000074       0.00000054       0.00000041       0.00017135       0.00278059      -0.00000125
H        1.40307661       4.05032832      16.81106453        0       1.00000000       0.00000010       0.00000115       0.00000015      -0.00000123       0.00027974       0.00000207
H        4.20923315       4.05033554       7.77136703        0       1.00000000       0.00000142      -0.00000101       0.00000030       0.00006390      -0.00280633       0.00000281
19
Lattice="5.612310241546866 0.0 0.0 0.0 4.860403243099165 0.0 0.0 0.0 24.582432123328676" Properties=species:S:1:pos:R:3:tags:I:1:masses:R:1:momenta:R:3:forces:R:3 KEmax=24.559391461069055 iter=239999 volume=670.5618179858607 ns_energy=-12.52347631991199 last_walked_iter_clone=239601 energy=-12.523473558182838 stress="0.02400408489668658 -1.1638567506436389e-08 2.05744880750301e-08 -1.1638567506436389e-08 0.024129683692469543 -2.490336671690085e-08 2.05744880750301e-08 -2.490336671690085e-08 0.012739409067778531" pbc="T T F"
H        1.40307756       0.81006721      10.00000000        3       1.00000000       0.00000000       0.00000000       0.00000000       0.00000000       0.00000000       0.00000000
H        4.20923268       0.81006721      10.00000000        3       1.00000000       0.00000000       0.00000000       0.00000000       0.00000000       0.00000000       0.00000000
H        0.00000000       3.24026883      10.00000000        3       1.00000000       0.00000000       0.00000000       0.00000000       0.00000000       0.00000000       0.00000000
H        2.80615512       3.24026883      10.00000000        3       1.00000000       0.00000000       0.00000000       0.00000000       0.00000000       0.00000000       0.00000000
H        0.00000000       1.62013441      12.29121606        2       1.00000000       0.00000000       0.00000000       0.00000000       0.00000000       0.00000000       0.00000000
H        2.80615512       1.62013441      12.29121606        2       1.00000000       0.00000000       0.00000000       0.00000000       0.00000000       0.00000000       0.00000000
H        1.40307756       4.05033604      12.29121606        2       1.00000000       0.00000000       0.00000000       0.00000000       0.00000000       0.00000000       0.00000000
H        4.20923268       4.05033604      12.29121606        2       1.00000000       0.00000000       0.00000000       0.00000000       0.00000000       0.00000000       0.00000000
H        0.00000000       0.00000000      14.58243212        1       1.00000000       0.00000000       0.00000000       0.00000000       0.00000000       0.00000000       0.00000000
H        2.80615512       0.00000000      14.58243212        1       1.00000000       0.00000000       0.00000000       0.00000000       0.00000000       0.00000000       0.00000000
H        1.40307756       2.43020162      14.58243212        1       1.00000000       0.00000000       0.00000000       0.00000000       0.00000000       0.00000000       0.00000000
H        4.20923268       2.43020162      14.58243212        1       1.00000000       0.00000000       0.00000000       0.00000000       0.00000000       0.00000000       0.00000000
H        5.61231053       1.62013444       7.77136708        0       1.00000000      -0.00000116       0.00000066       0.00000097      -0.00017030       0.00280760      -0.00000036
H        2.80919863       1.62012432      16.81107081        0       1.00000000      -0.00000015       0.00000078      -0.00000067       0.00085564      -0.00013849      -0.00000335
H        1.40307717       4.05033661       7.77136714        0       1.00000000       0.00000032      -0.00000102      -0.00000167      -0.00006474      -0.00278212      -0.00000249
H        5.60926723       1.62012475      16.81107120        0       1.00000000       0.00000105      -0.00000071      -0.00000029      -0.00085648      -0.00013881      -0.00000236
H        2.80615549       1.62013479       7.77136698        0       1.00000000      -0.00000051       0.00000083       0.00000071       0.00017135       0.00278059      -0.00000125
H        1.40307804       4.05032767      16.81106504        0       1.00000000      -0.00000100       0.00000011       0.00000021      -0.00000123       0.00027974       0.00000207
H        4.20923294       4.05033601       7.77136721        0       1.00000000       0.00000123      -0.00000008      -0.00000070       0.00006390      -0.00280633       0.00000281
19
Lattice="5.612310241546866 0.0 0.0 0.0 4.860403243099165 0.0 0.0 0.0 24.582432123328676" Properties=species:S:1:pos:R:3:tags:I:1:masses:R:1:momenta:R:3:forces:R:3 KEmax=24.559391461069055 iter=239999 volume=670.5618179858607 ns_energy=-12.52347631991198 last_walked_iter_clone=237335 energy=-12.523473558182838 stress="0.02400408489668658 -1.1638567506436389e-08 2.05744880750301e-08 -1.1638567506436389e-08 0.024129683692469543 -2.490336671690085e-08 2.05744880750301e-08 -2.490336671690085e-08 0.012739409067778531" pbc="T T F"
H        1.40307756       0.81006721      10.00000000        3       1.00000000       0.00000000       0.00000000       0.00000000       0.00000000       0.00000000       0.00000000
H        4.20923268       0.81006721      10.00000000        3       1.00000000       0.00000000       0.00000000       0.00000000       0.00000000       0.00000000       0.00000000
H        0.00000000       3.24026883      10.00000000        3       1.00000000       0.00000000       0.00000000       0.00000000       0.00000000       0.00000000       0.00000000
H        2.80615512       3.24026883      10.00000000        3       1.00000000       0.00000000       0.00000000       0.00000000       0.00000000       0.00000000       0.00000000
H        0.00000000       1.62013441      12.29121606        2       1.00000000       0.00000000       0.00000000       0.00000000       0.00000000       0.00000000       0.00000000
H        2.80615512       1.62013441      12.29121606        2       1.00000000       0.00000000       0.00000000       0.00000000       0.00000000       0.00000000       0.00000000
H        1.40307756       4.05033604      12.29121606        2       1.00000000       0.00000000       0.00000000       0.00000000       0.00000000       0.00000000       0.00000000
H        4.20923268       4.05033604      12.29121606        2       1.00000000       0.00000000       0.00000000       0.00000000       0.00000000       0.00000000       0.00000000
H        0.00000000       0.00000000      14.58243212        1       1.00000000       0.00000000       0.00000000       0.00000000       0.00000000       0.00000000       0.00000000
H        2.80615512       0.00000000      14.58243212        1       1.00000000       0.00000000       0.00000000       0.00000000       0.00000000       0.00000000       0.00000000
H        1.40307756       2.43020162      14.58243212        1       1.00000000       0.00000000       0.00000000       0.00000000       0.00000000       0.00000000       0.00000000
H        4.20923268       2.43020162      14.58243212        1       1.00000000       0.00000000       0.00000000       0.00000000       0.00000000       0.00000000       0.00000000
H       -0.00000055       1.62013447       7.77136726        0       1.00000000      -0.00000015      -0.00000008      -0.00000027      -0.00017030       0.00280760      -0.00000036
H        2.80919718       1.62012442      16.81107204        0       1.00000000       0.00000029      -0.00000043       0.00000032       0.00085564      -0.00013849      -0.00000335
H        1.40307683       4.05033619       7.77136714        0       1.00000000       0.00000151       0.00000049       0.00000047      -0.00006474      -0.00278212      -0.00000249
H        5.60926682       1.62012470      16.81107115        0       1.00000000      -0.00000057      -0.00000194       0.00000036      -0.00085648      -0.00013881      -0.00000236
H        2.80615417       1.62013441       7.77136711        0       1.00000000      -0.00000189      -0.00000051      -0.00000009       0.00017135       0.00278059      -0.00000125
H        1.40307764       4.05032805      16.81106462        0       1.00000000       0.00000027       0.00000085      -0.00000001      -0.00000123       0.00027974       0.00000207
H        4.20923177       4.05033603       7.77136677        0       1.00000000       0.00000027       0.00000008       0.00000016       0.00006390      -0.00280633       0.00000281
19
Lattice="5.612310241546866 0.0 0.0 0.0 4.860403243099165 0.0 0.0 0.0 24.582432123328676" Properties=species:S:1:pos:R:3:tags:I:1:masses:R:1:momenta:R:3:forces:R:3 KEmax=24.559391461069055 iter=239999 volume=670.5618179858607 ns_energy=-12.523476319912103 last_walked_iter_clone=239261 energy=-12.523473558182838 stress="0.02400408489668658 -1.1638567506436389e-08 2.05744880750301e-08 -1.1638567506436389e-08 0.024129683692469543 -2.490336671690085e-08 2.05744880750301e-08 -2.490336671690085e-08 0.012739409067778531" pbc="T T F"
H        1.40307756       0.81006721      10.00000000        3       1.00000000       0.00000000       0.00000000       0.00000000       0.00000000       0.00000000       0.00000000
H        4.20923268       0.81006721      10.00000000        3       1.00000000       0.00000000       0.00000000       0.00000000       0.00000000       0.00000000       0.00000000
H        0.00000000       3.24026883      10.00000000        3       1.00000000       0.00000000       0.00000000       0.00000000       0.00000000       0.00000000       0.00000000
H        2.80615512       3.24026883      10.00000000        3       1.00000000       0.00000000       0.00000000       0.00000000       0.00000000       0.00000000       0.00000000
H        0.00000000       1.62013441      12.29121606        2       1.00000000       0.00000000       0.00000000       0.00000000       0.00000000       0.00000000       0.00000000
H        2.80615512       1.62013441      12.29121606        2       1.00000000       0.00000000       0.00000000       0.00000000       0.00000000       0.00000000       0.00000000
H        1.40307756       4.05033604      12.29121606        2       1.00000000       0.00000000       0.00000000       0.00000000       0.00000000       0.00000000       0.00000000
H        4.20923268       4.05033604      12.29121606        2       1.00000000       0.00000000       0.00000000       0.00000000       0.00000000       0.00000000       0.00000000
H        0.00000000       0.00000000      14.58243212        1       1.00000000       0.00000000       0.00000000       0.00000000       0.00000000       0.00000000       0.00000000
H        2.80615512       0.00000000      14.58243212        1       1.00000000       0.00000000       0.00000000       0.00000000       0.00000000       0.00000000       0.00000000
H        1.40307756       2.43020162      14.58243212        1       1.00000000       0.00000000       0.00000000       0.00000000       0.00000000       0.00000000       0.00000000
H        4.20923268       2.43020162      14.58243212        1       1.00000000       0.00000000       0.00000000       0.00000000       0.00000000       0.00000000       0.00000000
H        5.61231127       1.62013429       7.77136702        0       1.00000000      -0.00000127      -0.00000093      -0.00000113      -0.00017030       0.00280760      -0.00000036
H        2.80919783       1.62012516      16.81107122        0       1.00000000      -0.00000118       0.00000039      -0.00000051       0.00085564      -0.00013849      -0.00000335
H        1.40307867       4.05033640       7.77136711        0       1.00000000      -0.00000030      -0.00000124      -0.00000003      -0.00006474      -0.00278212      -0.00000249
H        5.60926745       1.62012498      16.81107124        0       1.00000000       0.00000049       0.00000079       0.00000048      -0.00085648      -0.00013881      -0.00000236
H        2.80615666       1.62013507       7.77136750        0       1.00000000       0.00000080      -0.00000037      -0.00000057       0.00017135       0.00278059      -0.00000125
H        1.40307767       4.05032868      16.81106453        0       1.00000000      -0.00000062       0.00000027      -0.00000076      -0.00000123       0.00027974       0.00000207
H        4.20923344       4.05033636       7.77136717        0       1.00000000      -0.00000034      -0.00000058      -0.00000049       0.00006390      -0.00280633       0.00000281
19
Lattice="5.612310241546866 0.0 0.0 0.0 4.860403243099165 0.0 0.0 0.0 24.582432123328676" Properties=species:S:1:pos:R:3:tags:I:1:masses:R:1:momenta:R:3:forces:R:3 KEmax=24.559391461069055 iter=239999 volume=670.5618179858607 ns_energy=-12.523476319911865 last_walked_iter_clone=239741 energy=-12.523473558182838 stress="0.02400408489668658 -1.1638567506436389e-08 2.05744880750301e-08 -1.1638567506436389e-08 0.024129683692469543 -2.490336671690085e-08 2.05744880750301e-08 -2.490336671690085e-08 0.012739409067778531" pbc="T T F"
H        1.40307756       0.81006721      10.00000000        3       1.00000000       0.00000000       0.00000000       0.00000000       0.00000000       0.00000000       0.00000000
H        4.20923268       0.81006721      10.00000000        3       1.00000000       0.00000000       0.00000000       0.00000000       0.00000000       0.00000000       0.00000000
H        0.00000000       3.24026883      10.00000000        3       1.00000000       0.00000000       0.00000000       0.00000000       0.00000000       0.00000000       0.00000000
H        2.80615512       3.24026883      10.00000000        3       1.00000000       0.00000000       0.00000000       0.00000000       0.00000000       0.00000000       0.00000000
H        0.00000000       1.62013441      12.29121606        2       1.00000000       0.00000000       0.00000000       0.00000000       0.00000000       0.00000000       0.00000000
H        2.80615512       1.62013441      12.29121606        2       1.00000000       0.00000000       0.00000000       0.00000000       0.00000000       0.00000000       0.00000000
H        1.40307756       4.05033604      12.29121606        2       1.00000000       0.00000000       0.00000000       0.00000000       0.00000000       0.00000000       0.00000000
H        4.20923268       4.05033604      12.29121606        2       1.00000000       0.00000000       0.00000000       0.00000000       0.00000000       0.00000000       0.00000000