19
Lattice="5.612310241546866 0.0 0.0 0.0 4.860403243099165 0.0 0.0 0.0 24.582432123328676" Properties=species:S:1:pos:R:3:tags:I:1:masses:R:1:momenta:R:3:forces:R:3 KEmax=24.559391461069055 iter=189828 volume=670.5618179858607 ns_energy=-12.523476319819268 last_walked_iter_clone=189575 energy=-12.523476319856108 stress="0.0240048208165986 -9.164288024243551e-09 -7.177629388574699e-09 -9.164288024243551e-09 0.024132700167756857 3.7455698003160344e-08 -7.177629388574699e-09 3.7455698003160344e-08 0.01273928758043844" pbc="T T F"
H        1.40307756       0.81006721      10.00000000        3       1.00000000       0.00000000       0.00000000       0.00000000       0.00000000       0.00000000       0.00000000
H        4.20923268       0.81006721      10.00000000        3       1.00000000       0.00000000       0.00000000       0.00000000       0.00000000       0.00000000       0.00000000
H        0.00000000       3.24026883      10.00000000        3       1.00000000       0.00000000       0.00000000       0.00000000       0.00000000       0.00000000       0.00000000
H        2.80615512       3.24026883      10.00000000        3       1.00000000       0.00000000       0.00000000       0.00000000       0.00000000       0.00000000       0.00000000
H        0.00000000       1.62013441      12.29121606        2       1.00000000       0.00000000       0.00000000       0.00000000       0.00000000       0.00000000       0.00000000
H        2.80615512       1.62013441      12.29121606        2       1.00000000       0.00000000       0.00000000       0.00000000       0.00000000       0.00000000       0.00000000
H        1.40307756       4.05033604      12.29121606        2       1.00000000       0.00000000       0.00000000       0.00000000       0.00000000       0.00000000       0.00000000
H        4.20923268       4.05033604      12.29121606        2       1.00000000       0.00000000       0.00000000       0.00000000       0.00000000       0.00000000       0.00000000
H        0.00000000       0.00000000      14.58243212        1       1.00000000       0.00000000       0.00000000       0.00000000       0.00000000       0.00000000       0.00000000
H        2.80615512       0.00000000      14.58243212        1       1.00000000       0.00000000       0.00000000       0.00000000       0.00000000       0.00000000       0.00000000
H        1.40307756       2.43020162      14.58243212        1       1.00000000       0.00000000       0.00000000       0.00000000       0.00000000       0.00000000       0.00000000
H        4.20923268       2.43020162      14.58243212        1       1.00000000       0.00000000       0.00000000       0.00000000       0.00000000       0.00000000       0.00000000
H        0.00000047       1.62013448       7.77136669        0       1.00000000       0.00000504       0.00000013       0.00000016      -0.00000204      -0.00000408      -0.00000564
H        2.80919894       1.62012543      16.81107111        0       1.00000000       0.00000152       0.00000356      -0.00000262      -0.00000212      -0.00000038      -0.00000363
H        1.40307852       4.05033618       7.77136750        0       1.00000000      -0.00000138      -0.00000047      -0.00000029       0.00000995       0.00000523      -0.00001134
H        5.60926740       1.62012537      16.81107025        0       1.00000000       0.00000297       0.00000191      -0.00000133       0.00000144      -0.00000347      -0.00000219
H        2.80615652       1.62013369       7.77136724        0       1.00000000      -0.00000375      -0.00000176       0.00000078      -0.00000094       0.00000022      -0.00000271
H        1.40307958       4.05032682      16.81106686        0       1.00000000      -0.00000130      -0.00000063      -0.00000326       0.00000202       0.00000202      -0.00000187
H        4.20923465       4.05033794       7.77136321        0       1.00000000       0.00000273       0.00000209      -0.00000200      -0.00000642       0.00000097       0.00000091
19
Lattice="5.612310241546866 0.0 0.0 0.0 4.860403243099165 0.0 0.0 0.0 24.582432123328676" Properties=species:S:1:pos:R:3:tags:I:1:masses:R:1:momenta:R:3:forces:R:3 KEmax=24.559391461069055 iter=189828 volume=670.5618179858607 ns_energy=-12.523476319811632 last_walked_iter_clone=189607 energy=-12.523476319856108 stress="0.0240048208165986 -9.164288024243551e-09 -7.177629388574699e-09 -9.164288024243551e-09 0.024132700167756857 3.7455698003160344e-08 -7.177629388574699e-09 3.7455698003160344e-08 0.01273928758043844" pbc="T T F"
H        1.40307756       0.81006721      10.00000000        3       1.00000000       0.00000000       0.00000000       0.00000000       0.00000000       0.00000000       0.00000000
H        4.20923268       0.81006721      10.00000000        3       1.00000000       0.00000000       0.00000000       0.00000000       0.00000000       0.00000000       0.00000000
H        0.00000000       3.24026883      10.00000000        3       1.00000000       0.00000000       0.00000000       0.00000000       0.00000000       0.00000000       0.00000000
H        2.80615512       3.24026883      10.00000000        3       1.00000000       0.00000000       0.00000000       0.00000000       0.00000000       0.00000000       0.00000000
H        0.00000000       1.62013441      12.29121606        2       1.00000000       0.00000000       0.00000000       0.00000000       0.00000000       0.00000000       0.00000000
H        2.80615512       1.62013441      12.29121606        2       1.00000000       0.00000000       0.00000000       0.00000000       0.00000000       0.00000000       0.00000000
H        1.40307756       4.05033604      12.29121606        2       1.00000000       0.00000000       0.00000000       0.00000000       0.00000000       0.00000000       0.00000000
H        4.20923268       4.05033604      12.29121606        2       1.00000000       0.00000000       0.00000000       0.00000000       0.00000000       0.00000000       0.00000000
H        0.00000000       0.00000000      14.58243212        1       1.00000000       0.00000000       0.00000000       0.00000000       0.00000000       0.00000000       0.00000000
H        2.80615512       0.00000000      14.58243212        1       1.00000000       0.00000000       0.00000000       0.00000000       0.00000000       0.00000000       0.00000000
H        1.40307756       2.43020162      14.58243212        1       1.00000000       0.00000000       0.00000000       0.00000000       0.00000000       0.00000000       0.00000000
H        4.20923268       2.43020162      14.58243212        1       1.00000000       0.00000000       0.00000000       0.00000000       0.00000000       0.00000000       0.00000000
H       -0.00000076       1.62013365       7.77136677        0       1.00000000       0.00000516       0.00000156      -0.00000127      -0.00000204      -0.00000408      -0.00000564
H        2.80919664       1.62012461      16.81106848        0       1.00000000      -0.00000343       0.00000062       0.00000284      -0.00000212      -0.00000038      -0.00000363
H        1.40307809       4.05033412       7.77136770        0       1.00000000       0.00000104      -0.00000323      -0.00000017       0.00000995       0.00000523      -0.00001134
H        5.60926805       1.62012516      16.81107103        0       1.00000000      -0.00000077       0.00000126       0.00000022       0.00000144      -0.00000347      -0.00000219
H        2.80615733       1.62013526       7.77136604        0       1.00000000      -0.00000236      -0.00000474      -0.00000069      -0.00000094       0.00000022      -0.00000271
H        1.40307833       4.05032583      16.81106702        0       1.00000000      -0.00000133       0.00000044       0.00000301       0.00000202       0.00000202      -0.00000187
H        4.20923243       4.05033621       7.77136656        0       1.00000000      -0.00000127       0.00000161       0.00000102      -0.00000642       0.00000097       0.00000091
19
Lattice="5.612310241546866 0.0 0.0 0.0 4.860403243099165 0.0 0.0 0.0 24.582432123328676" Properties=species:S:1:pos:R:3:tags:I:1:masses:R:1:momenta:R:3:forces:R:3 KEmax=24.559391461069055 iter=189828 volume=670.5618179858607 ns_energy=-12.523476319811383 last_walked_iter_clone=189352 energy=-12.523476319856108 stress="0.0240048208165986 -9.164288024243551e-09 -7.177629388574699e-09 -9.164288024243551e-09 0.024132700167756857 3.7455698003160344e-08 -7.177629388574699e-09 3.7455698003160344e-08 0.01273928758043844" pbc="T T F"
H        1.40307756       0.81006721      10.00000000        3       1.00000000       0.00000000       0.00000000       0.00000000       0.00000000       0.00000000       0.00000000
H        4.20923268       0.81006721      10.00000000        3       1.00000000       0.00000000       0.00000000       0.00000000       0.00000000       0.00000000       0.00000000
H        0.00000000       3.24026883      10.00000000        3       1.00000000       0.00000000       0.00000000       0.00000000       0.00000000       0.00000000       0.00000000
H        2.80615512       3.24026883      10.00000000        3       1.00000000       0.00000000       0.00000000       0.00000000       0.00000000       0.00000000       0.00000000
H        0.00000000       1.62013441      12.29121606        2       1.00000000       0.00000000       0.00000000       0.00000000       0.00000000       0.00000000       0.00000000
H        2.80615512       1.62013441      12.29121606        2       1.00000000       0.00000000       0.00000000       0.00000000       0.00000000       0.00000000       0.00000000
H        1.40307756       4.05033604      12.29121606        2       1.00000000       0.00000000       0.00000000       0.00000000       0.00000000       0.00000000       0.00000000
H        4.20923268       4.05033604      12.29121606        2       1.00000000       0.00000000       0.00000000       0.00000000       0.00000000       0.00000000       0.00000000
H        0.00000000       0.00000000      14.58243212        1       1.00000000       0.00000000       0.00000000       0.00000000       0.00000000       0.00000000       0.00000000
H        2.80615512       0.00000000      14.58243212        1       1.00000000       0.00000000       0.00000000       0.00000000       0.00000000       0.00000000       0.00000000
H        1.40307756       2.43020162      14.58243212        1       1.00000000       0.00000000       0.00000000       0.00000000       0.00000000       0.00000000       0.00000000
H        4.20923268       2.43020162      14.58243212        1       1.00000000       0.00000000       0.00000000       0.00000000       0.00000000       0.00000000       0.00000000
H        5.61230904       1.62013330       7.77136758        0       1.00000000      -0.00000038       0.00000218      -0.00000245      -0.00000204      -0.00000408      -0.00000564
H        2.80919891       1.62012839      16.81107234        0       1.00000000      -0.00000150      -0.00000022       0.00000029      -0.00000212      -0.00000038      -0.00000363
H        1.40307418       4.05033781       7.77136947        0       1.00000000      -0.00000053       0.00000279       0.00000015       0.00000995       0.00000523      -0.00001134
H        5.60926648       1.62012609      16.81107138        0       1.00000000       0.00000240       0.00000187      -0.00000161       0.00000144      -0.00000347      -0.00000219
H        2.80615270       1.62013369       7.77136832        0       1.00000000       0.00000334      -0.00000261      -0.00000146      -0.00000094       0.00000022      -0.00000271
H        1.40307697       4.05033051      16.81106260        0       1.00000000       0.00000530      -0.00000375       0.00000020       0.00000202       0.00000202      -0.00000187
H        4.20923144       4.05033624       7.77136585        0       1.00000000      -0.00000155       0.00000225       0.00000067      -0.00000642       0.00000097       0.00000091
19
Lattice="5.612310241546866 0.0 0.0 0.0 4.860403243099165 0.0 0.0 0.0 24.582432123328676" Properties=species:S:1:pos:R:3:tags:I:1:masses:R:1:momenta:R:3:forces:R:3 KEmax=24.559391461069055 iter=189828 volume=670.5618179858607 ns_energy=-12.523476319815607 last_walked_iter_clone=189513 energy=-12.523476319856108 stress="0.0240048208165986 -9.164288024243551e-09 -7.177629388574699e-09 -9.164288024243551e-09 0.024132700167756857 3.7455698003160344e-08 -7.177629388574699e-09 3.7455698003160344e-08 0.01273928758043844" pbc="T T F"
H        1.40307756       0.81006721      10.00000000        3       1.00000000       0.00000000       0.00000000       0.00000000       0.00000000       0.00000000       0.00000000
H        4.20923268       0.81006721      10.00000000        3       1.00000000       0.00000000       0.00000000       0.00000000       0.00000000       0.00000000       0.00000000
H        0.00000000       3.24026883      10.00000000        3       1.00000000       0.00000000       0.00000000       0.00000000       0.00000000       0.00000000       0.00000000
H        2.80615512       3.24026883      10.00000000        3       1.00000000       0.00000000       0.00000000       0.00000000       0.00000000       0.00000000       0.00000000
H        0.00000000       1.62013441      12.29121606        2       1.00000000       0.00000000       0.00000000       0.00000000       0.00000000       0.00000000       0.00000000
H        2.80615512       1.62013441      12.29121606        2       1.00000000       0.00000000       0.00000000       0.00000000       0.00000000       0.00000000       0.00000000
H        1.40307756       4.05033604      12.29121606        2       1.00000000       0.00000000       0.00000000       0.00000000       0.00000000       0.00000000       0.00000000
H        4.20923268       4.05033604      12.29121606        2       1.00000000       0.00000000       0.00000000       0.00000000       0.00000000       0.00000000       0.00000000
H        0.00000000       0.00000000      14.58243212        1       1.00000000       0.00000000       0.00000000       0.00000000       0.00000000       0.00000000       0.00000000
H        2.80615512       0.00000000      14.58243212        1       1.00000000       0.00000000       0.00000000       0.00000000       0.00000000       0.00000000       0.00000000
H        1.40307756       2.43020162      14.58243212        1       1.00000000       0.00000000       0.00000000       0.00000000       0.00000000       0.00000000       0.00000000
H        4.20923268       2.43020162      14.58243212        1       1.00000000       0.00000000       0.00000000       0.00000000       0.00000000       0.00000000       0.00000000
H        5.61231188       1.62013589       7.77136471        0       1.00000000       0.00000189       0.00000134       0.00000277      -0.00000204      -0.00000408      -0.00000564
H        2.80919956       1.62012524      16.81106814        0       1.00000000      -0.00000181       0.00000103       0.00000272      -0.00000212      -0.00000038      -0.00000363
H        1.40308001       4.05033927       7.77136862        0       1.00000000       0.00000205       0.00000168      -0.00000066       0.00000995       0.00000523      -0.00001134
H        5.60926730       1.62012446      16.81107017        0       1.00000000      -0.00000111      -0.00000311      -0.00000093       0.00000144      -0.00000347      -0.00000219
H        2.80615653       1.62013708       7.77136659        0       1.00000000       0.00000013       0.00000319      -0.00000028      -0.00000094       0.00000022      -0.00000271
H        1.40307895       4.05032856      16.81106612        0       1.00000000      -0.00000390       0.00000024       0.00000174       0.00000202       0.00000202      -0.00000187
H        4.20923165       4.05033876       7.77136764        0       1.00000000      -0.00000407      -0.00000122      -0.00000122      -0.00000642       0.00000097       0.00000091
19
Lattice="5.612310241546866 0.0 0.0 0.0 4.860403243099165 0.0 0.0 0.0 24.582432123328676" Properties=species:S:1:pos:R:3:tags:I:1:masses:R:1:momenta:R:3:forces:R:3 KEmax=24.559391461069055 iter=189828 volume=670.5618179858607 ns_energy=-12.523476319813657 last_walked_iter_clone=189763 energy=-12.523476319856108 stress="0.0240048208165986 -9.164288024243551e-09 -7.177629388574699e-09 -9.164288024243551e-09 0.024132700167756857 3.7455698003160344e-08 -7.177629388574699e-09 3.7455698003160344e-08 0.01273928758043844" pbc="T T F"
H        1.40307756       0.81006721      10.00000000        3       1.00000000       0.00000000       0.00000000       0.00000000       0.00000000       0.00000000       0.00000000
H        4.20923268       0.81006721      10.00000000        3       1.00000000       0.00000000       0.00000000       0.00000000       0.00000000       0.00000000       0.00000000
H        0.00000000       3.24026883      10.00000000        3       1.00000000       0.00000000       0.00000000       0.00000000       0.00000000       0.00000000       0.00000000
H        2.80615512       3.24026883      10.00000000        3       1.00000000       0.00000000       0.00000000       0.00000000       0.00000000       0.00000000       0.00000000
H        0.00000000       1.62013441      12.29121606        2       1.00000000       0.00000000       0.00000000       0.00000000       0.00000000       0.00000000       0.00000000
H        2.80615512       1.62013441      12.29121606        2       1.00000000       0.00000000       0.00000000       0.00000000       0.00000000       0.00000000       0.00000000
H        1.40307756       4.05033604      12.29121606        2       1.00000000       0.00000000       0.00000000       0.00000000       0.00000000       0.00000000       0.00000000
H        4.20923268       4.05033604      12.29121606        2       1.00000000       0.00000000       0.00000000       0.00000000       0.00000000       0.00000000       0.00000000
H        0.00000000       0.00000000      14.58243212        1       1.00000000       0.00000000       0.00000000       0.00000000       0.00000000       0.00000000       0.00000000
H        2.80615512       0.00000000      14.58243212        1       1.00000000       0.00000000       0.00000000       0.00000000       0.00000000       0.00000000       0.00000000
H        1.40307756       2.43020162      14.58243212        1       1.00000000       0.00000000       0.00000000       0.00000000       0.00000000       0.00000000       0.00000000
H        4.20923268       2.43020162      14.58243212        1       1.00000000       0.00000000       0.00000000       0.00000000       0.00000000       0.00000000       0.00000000
H        5.61230871       1.62013522       7.77136465        0       1.00000000       0.00000142      -0.00000184       0.00000469      -0.00000204      -0.00000408      -0.00000564
H        2.80919511       1.62012588      16.81107153        0       1.00000000      -0.00000360      -0.00000157      -0.00000020      -0.00000212      -0.00000038      -0.00000363
H        1.40307687       4.05033653       7.77136612        0       1.00000000      -0.00000163      -0.00000150      -0.00000114       0.00000995       0.00000523      -0.00001134
H        5.60926530       1.62012135      16.81107301        0       1.00000000      -0.00000152       0.00000129      -0.00000354       0.00000144      -0.00000347      -0.00000219
H        2.80615404       1.62013393       7.77136437        0       1.00000000       0.00000290      -0.00000057      -0.00000125      -0.00000094       0.00000022      -0.00000271
H        1.40307687       4.05032794      16.81106455        0       1.00000000       0.00000081      -0.00000175      -0.00000298       0.00000202       0.00000202      -0.00000187
H        4.20923187       4.05033515       7.77136700        0       1.00000000       0.00000251       0.00000488       0.00000193      -0.00000642       0.00000097       0.00000091
19
Lattice="5.612310241546866 0.0 0.0 0.0 4.860403243099165 0.0 0.0 0.0 24.582432123328676" Properties=species:S:1:pos:R:3:tags:I:1:masses:R:1:momenta:R:3:forces:R:3 KEmax=24.559391461069055 iter=189828 volume=670.5618179858607 ns_energy=-12.523476319812616 last_walked_iter_clone=189546 energy=-12.523476319856108 stress="0.0240048208165986 -9.164288024243551e-09 -7.177629388574699e-09 -9.164288024243551e-09 0.024132700167756857 3.7455698003160344e-08 -7.177629388574699e-09 3.7455698003160344e-08 0.01273928758043844" pbc="T T F"
H        1.40307756       0.81006721      10.00000000        3       1.00000000       0.00000000       0.00000000       0.00000000       0.00000000       0.00000000       0.00000000
H        4.20923268       0.81006721      10.00000000        3       1.00000000       0.00000000       0.00000000       0.00000000       0.00000000       0.00000000       0.00000000
H        0.00000000       3.24026883      10.00000000        3       1.00000000       0.00000000       0.00000000       0.00000000       0.00000000       0.00000000       0.00000000
H        2.80615512       3.24026883      10.00000000        3       1.00000000       0.00000000       0.00000000       0.00000000       0.00000000       0.00000000       0.00000000
H        0.00000000       1.62013441      12.29121606        2       1.00000000       0.00000000       0.00000000       0.00000000       0.00000000       0.00000000       0.00000000
H        2.80615512       1.62013441      12.29121606        2       1.00000000       0.00000000       0.00000000       0.00000000       0.00000000       0.00000000       0.00000000
H        1.40307756       4.05033604      12.29121606        2       1.00000000       0.00000000       0.00000000       0.00000000       0.00000000       0.00000000       0.00000000
H        4.20923268       4.05033604      12.29121606        2       1.00000000       0.00000000       0.00000000       0.00000000       0.00000000       0.00000000       0.00000000
H        0.00000000       0.00000000      14.58243212        1       1.00000000       0.00000000       0.00000000       0.00000000       0.00000000       0.00000000       0.00000000
H        2.80615512       0.00000000      14.58243212        1       1.00000000       0.00000000       0.00000000       0.00000000       0.00000000       0.00000000       0.00000000
H        1.40307756       2.43020162      14.58243212        1       1.00000000       0.00000000       0.00000000       0.00000000       0.00000000       0.00000000       0.00000000
H        4.20923268       2.43020162      14.58243212        1       1.00000000       0.00000000       0.00000000       0.00000000       0.00000000       0.00000000       0.00000000
H        5.61230963       1.62013601       7.77136714        0       1.00000000      -0.00000128      -0.00000165      -0.00000175      -0.00000204      -0.00000408      -0.00000564
H        2.80919730       1.62012618      16.81106668        0       1.00000000       0.00000092      -0.00000285      -0.00000043      -0.00000212      -0.00000038      -0.00000363
H        1.40307808       4.05033654       7.77136728        0       1.00000000       0.00000223       0.00000039       0.00000511       0.00000995       0.00000523      -0.00001134
H        5.60926373       1.62012432      16.81106972        0       1.00000000       0.00000273       0.00000192       0.00000214       0.00000144      -0.00000347      -0.00000219
H        2.80615324       1.62013495       7.77136904        0       1.00000000       0.00000273       0.00000053      -0.00000088      -0.00000094       0.00000022      -0.00000271
H        1.40307633       4.05032742      16.81106510        0       1.00000000       0.00000001      -0.00000036      -0.00000219       0.00000202       0.00000202      -0.00000187
H        4.20923138       4.05033491       7.77136699        0       1.00000000      -0.00000154       0.00000126      -0.00000162      -0.00000642       0.00000097       0.00000091
19
Lattice="5.612310241546866 0.0 0.0 0.0 4.860403243099165 0.0 0.0 0.0 24.582432123328676" Properties=species:S:1:pos:R:3:tags:I:1:masses:R:1:momenta:R:3:forces:R:3 KEmax=24.559391461069055 iter=189828 volume=670.5618179858607 ns_energy=-12.523476319811655 last_walked_iter_clone=189535 energy=-12.523476319856108 stress="0.0240048208165986 -9.164288024243551e-09 -7.177629388574699e-09 -9.164288024243551e-09 0.024132700167756857 3.7455698003160344e-08 -7.177629388574699e-09 3.7455698003160344e-08 0.01273928758043844" pbc="T T F"
H        1.40307756       0.81006721      10.00000000        3       1.00000000       0.00000000       0.00000000       0.00000000       0.00000000       0.00000000       0.00000000
H        4.20923268       0.81006721      10.00000000        3       1.00000000       0.00000000       0.00000000       0.00000000       0.00000000       0.00000000       0.00000000
H        0.00000000       3.24026883      10.00000000        3       1.00000000       0.00000000       0.00000000       0.00000000       0.00000000       0.00000000       0.00000000
H        2.80615512       3.24026883      10.00000000        3       1.00000000       0.00000000       0.00000000       0.00000000       0.00000000       0.00000000       0.00000000
H        0.00000000       1.62013441      12.29121606        2       1.00000000       0.00000000       0.00000000       0.00000000       0.00000000       0.00000000       0.00000000
H        2.80615512       1.62013441      12.29121606        2       1.00000000       0.00000000       0.00000000       0.00000000       0.00000000       0.00000000       0.00000000
H        1.40307756       4.05033604      12.29121606        2       1.00000000       0.00000000       0.00000000       0.00000000       0.00000000       0.00000000       0.00000000
H        4.20923268       4.05033604      12.29121606        2       1.00000000       0.00000000       0.00000000       0.00000000       0.00000000       0.00000000       0.00000000
H        0.00000000       0.00000000      14.58243212        1       1.00000000       0.00000000       0.00000000       0.00000000       0.00000000       0.00000000       0.00000000
H        2.80615512       0.00000000      14.58243212        1       1.00000000       0.00000000       0.00000000       0.00000000       0.00000000       0.00000000       0.00000000
H        1.40307756       2.43020162      14.58243212        1       1.00000000       0.00000000       0.00000000       0.00000000       0.00000000       0.00000000       0.00000000
H        4.20923268       2.43020162      14.58243212        1       1.00000000       0.00000000       0.00000000       0.00000000       0.00000000       0.00000000       0.00000000
H        5.61231196       1.62013566       7.77136776        0       1.00000000       0.00000250      -0.00000235      -0.00000334      -0.00000204      -0.00000408      -0.00000564
H        2.80919645       1.62012555      16.81107123        0       1.00000000      -0.00000192       0.00000238      -0.00000086      -0.00000212      -0.00000038      -0.00000363
H        1.40307877       4.05033613       7.77136681        0       1.00000000       0.00000243      -0.00000047      -0.00000121       0.00000995       0.00000523      -0.00001134
H        5.60926624       1.62012691      16.81107079        0       1.00000000       0.00000068      -0.00000037      -0.00000260       0.00000144      -0.00000347      -0.00000219
H        2.80615888       1.62013669       7.77137012        0       1.00000000       0.00000410       0.00000011      -0.00000002      -0.00000094       0.00000022      -0.00000271
H        1.40307566       4.05033172      16.81106302        0       1.00000000       0.00000256       0.00000032       0.00000211       0.00000202       0.00000202      -0.00000187
H        4.20923175       4.05033665       7.77136891        0       1.00000000       0.00000210      -0.00000262       0.00000093      -0.00000642       0.00000097       0.00000091
19
Lattice="5.612310241546866 0.0 0.0 0.0 4.860403243099165 0.0 0.0 0.0 24.582432123328676" Properties=species:S:1:pos:R:3:tags:I:1:masses:R:1:momenta:R:3:forces:R:3 KEmax=24.559391461069055 iter=189828 volume=670.5618179858607 ns_energy=-12.523476319811929 last_walked_iter_clone=189814 energy=-12.523476319856108 stress="0.0240048208165986 -9.164288024243551e-09 -7.177629388574699e-09 -9.164288024243551e-09 0.024132700167756857 3.7455698003160344e-08 -7.177629388574699e-09 3.7455698003160344e-08 0.01273928758043844" pbc="T T F"
H        1.40307756       0.81006721      10.00000000        3       1.00000000       0.00000000       0.00000000       0.00000000       0.00000000       0.00000000       0.00000000
H        4.20923268       0.81006721      10.00000000        3       1.00000000       0.00000000       0.00000000       0.00000000       0.00000000       0.00000000       0.00000000
H        0.00000000       3.24026883      10.00000000        3       1.00000000       0.00000000       0.00000000       0.00000000       0.00000000       0.00000000       0.00000000
H        2.80615512       3.24026883      10.00000000        3       1.00000000       0.00000000       0.00000000       0.00000000       0.00000000       0.00000000       0.00000000
H        0.00000000       1.62013441      12.29121606        2       1.00000000       0.00000000       0.00000000       0.00000000       0.00000000       0.00000000       0.00000000
H        2.80615512       1.62013441      12.29121606        2       1.00000000       0.00000000       0.00000000       0.00000000       0.00000000       0.00000000       0.00000000
H        1.40307756       4.05033604      12.29121606        2       1.00000000       0.00000000       0.00000000       0.00000000       0.00000000       0.00000000       0.00000000
H        4.20923268       4.05033604      12.29121606        2       1.00000000       0.00000000       0.00000000       0.00000000       0.00000000       0.00000000       0.00000000