19
Lattice="5.612310241546866 0.0 0.0 0.0 4.860403243099165 0.0 0.0 0.0 24.582432123328676" Properties=species:S:1:pos:R:3:tags:I:1:masses:R:1:momenta:R:3:forces:R:3 KEmax=24.559391461069055 iter=223083 volume=670.5618179858607 ns_energy=-12.523476319908612 last_walked_iter_clone=222032 energy=-12.52347631991327 stress="0.024004867509198738 -1.2323220102269289e-08 9.860237026464977e-09 -1.2323220102269289e-08 0.024132698085041537 -5.72011921425577e-09 9.860237026464977e-09 -5.72011921425577e-09 0.012739382314648497" pbc="T T F"
H        1.40307756       0.81006721      10.00000000        3       1.00000000       0.00000000       0.00000000       0.00000000       0.00000000       0.00000000       0.00000000
H        4.20923268       0.81006721      10.00000000        3       1.00000000       0.00000000       0.00000000       0.00000000       0.00000000       0.00000000       0.00000000
H        0.00000000       3.24026883      10.00000000        3       1.00000000       0.00000000       0.00000000       0.00000000       0.00000000       0.00000000       0.00000000
H        2.80615512       3.24026883      10.00000000        3       1.00000000       0.00000000       0.00000000       0.00000000       0.00000000       0.00000000       0.00000000
H        0.00000000       1.62013441      12.29121606        2       1.00000000       0.00000000       0.00000000       0.00000000       0.00000000       0.00000000       0.00000000
H        2.80615512       1.62013441      12.29121606        2       1.00000000       0.00000000       0.00000000       0.00000000       0.00000000       0.00000000       0.00000000
H        1.40307756       4.05033604      12.29121606        2       1.00000000       0.00000000       0.00000000       0.00000000       0.00000000       0.00000000       0.00000000
H        4.20923268       4.05033604      12.29121606        2       1.00000000       0.00000000       0.00000000       0.00000000       0.00000000       0.00000000       0.00000000
H        0.00000000       0.00000000      14.58243212        1       1.00000000       0.00000000       0.00000000       0.00000000       0.00000000       0.00000000       0.00000000
H        2.80615512       0.00000000      14.58243212        1       1.00000000       0.00000000       0.00000000       0.00000000       0.00000000       0.00000000       0.00000000
H        1.40307756       2.43020162      14.58243212        1       1.00000000       0.00000000       0.00000000       0.00000000       0.00000000       0.00000000       0.00000000
H        4.20923268       2.43020162      14.58243212        1       1.00000000       0.00000000       0.00000000       0.00000000       0.00000000       0.00000000       0.00000000
H       -0.00000051       1.62013457       7.77136651        0       1.00000000      -0.00000073       0.00000113      -0.00000022      -0.00000409       0.00000070       0.00000052
H        2.80919801       1.62012447      16.81107130        0       1.00000000      -0.00000003      -0.00000011       0.00000015      -0.00000064       0.00000100      -0.00000046
H        1.40307749       4.05033616       7.77136680        0       1.00000000      -0.00000141       0.00000139      -0.00000053      -0.00000031      -0.00000003       0.00000012
H        5.60926721       1.62012397      16.81107243        0       1.00000000       0.00000003       0.00000038       0.00000051      -0.00000175      -0.00000079       0.00000046
H        2.80615484       1.62013504       7.77136753        0       1.00000000      -0.00000086      -0.00000095       0.00000065       0.00000315      -0.00000203       0.00000171
H        1.40307711       4.05032742      16.81106457        0       1.00000000       0.00000011       0.00000114       0.00000116       0.00000107      -0.00000079       0.00000018
H        4.20923238       4.05033688       7.77136733        0       1.00000000       0.00000049      -0.00000025       0.00000168       0.00000101       0.00000020      -0.00000287
19
Lattice="5.612310241546866 0.0 0.0 0.0 4.860403243099165 0.0 0.0 0.0 24.582432123328676" Properties=species:S:1:pos:R:3:tags:I:1:masses:R:1:momenta:R:3:forces:R:3 KEmax=24.559391461069055 iter=223083 volume=670.5618179858607 ns_energy=-12.523476319908344 last_walked_iter_clone=221643 energy=-12.52347631991327 stress="0.024004867509198738 -1.2323220102269289e-08 9.860237026464977e-09 -1.2323220102269289e-08 0.024132698085041537 -5.72011921425577e-09 9.860237026464977e-09 -5.72011921425577e-09 0.012739382314648497" pbc="T T F"
H        1.40307756       0.81006721      10.00000000        3       1.00000000       0.00000000       0.00000000       0.00000000       0.00000000       0.00000000       0.00000000
H        4.20923268       0.81006721      10.00000000        3       1.00000000       0.00000000       0.00000000       0.00000000       0.00000000       0.00000000       0.00000000
H        0.00000000       3.24026883      10.00000000        3       1.00000000       0.00000000       0.00000000       0.00000000       0.00000000       0.00000000       0.00000000
H        2.80615512       3.24026883      10.00000000        3       1.00000000       0.00000000       0.00000000       0.00000000       0.00000000       0.00000000       0.00000000
H        0.00000000       1.62013441      12.29121606        2       1.00000000       0.00000000       0.00000000       0.00000000       0.00000000       0.00000000       0.00000000
H        2.80615512       1.62013441      12.29121606        2       1.00000000       0.00000000       0.00000000       0.00000000       0.00000000       0.00000000       0.00000000
H        1.40307756       4.05033604      12.29121606        2       1.00000000       0.00000000       0.00000000       0.00000000       0.00000000       0.00000000       0.00000000
H        4.20923268       4.05033604      12.29121606        2       1.00000000       0.00000000       0.00000000       0.00000000       0.00000000       0.00000000       0.00000000
H        0.00000000       0.00000000      14.58243212        1       1.00000000       0.00000000       0.00000000       0.00000000       0.00000000       0.00000000       0.00000000
H        2.80615512       0.00000000      14.58243212        1       1.00000000       0.00000000       0.00000000       0.00000000       0.00000000       0.00000000       0.00000000
H        1.40307756       2.43020162      14.58243212        1       1.00000000       0.00000000       0.00000000       0.00000000       0.00000000       0.00000000       0.00000000
H        4.20923268       2.43020162      14.58243212        1       1.00000000       0.00000000       0.00000000       0.00000000       0.00000000       0.00000000       0.00000000
H        5.61231005       1.62013393       7.77136743        0       1.00000000       0.00000096      -0.00000004       0.00000006      -0.00000409       0.00000070       0.00000052
H        2.80919733       1.62012380      16.81107214        0       1.00000000      -0.00000086       0.00000017       0.00000033      -0.00000064       0.00000100      -0.00000046
H        1.40307736       4.05033598       7.77136772        0       1.00000000      -0.00000121       0.00000061       0.00000049      -0.00000031      -0.00000003       0.00000012
H        5.60926742       1.62012456      16.81107158        0       1.00000000      -0.00000039       0.00000102       0.00000100      -0.00000175      -0.00000079       0.00000046
H        2.80615528       1.62013380       7.77136744        0       1.00000000      -0.00000015      -0.00000014      -0.00000098       0.00000315      -0.00000203       0.00000171
H        1.40307900       4.05032779      16.81106469        0       1.00000000       0.00000034       0.00000007      -0.00000067       0.00000107      -0.00000079       0.00000018
H        4.20923291       4.05033597       7.77136765        0       1.00000000       0.00000126       0.00000073      -0.00000144       0.00000101       0.00000020      -0.00000287
19
Lattice="5.612310241546866 0.0 0.0 0.0 4.860403243099165 0.0 0.0 0.0 24.582432123328676" Properties=species:S:1:pos:R:3:tags:I:1:masses:R:1:momenta:R:3:forces:R:3 KEmax=24.559391461069055 iter=223083 volume=670.5618179858607 ns_energy=-12.52347631990846 last_walked_iter_clone=222574 energy=-12.52347631991327 stress="0.024004867509198738 -1.2323220102269289e-08 9.860237026464977e-09 -1.2323220102269289e-08 0.024132698085041537 -5.72011921425577e-09 9.860237026464977e-09 -5.72011921425577e-09 0.012739382314648497" pbc="T T F"
H        1.40307756       0.81006721      10.00000000        3       1.00000000       0.00000000       0.00000000       0.00000000       0.00000000       0.00000000       0.00000000
H        4.20923268       0.81006721      10.00000000        3       1.00000000       0.00000000       0.00000000       0.00000000       0.00000000       0.00000000       0.00000000
H        0.00000000       3.24026883      10.00000000        3       1.00000000       0.00000000       0.00000000       0.00000000       0.00000000       0.00000000       0.00000000
H        2.80615512       3.24026883      10.00000000        3       1.00000000       0.00000000       0.00000000       0.00000000       0.00000000       0.00000000       0.00000000
H        0.00000000       1.62013441      12.29121606        2       1.00000000       0.00000000       0.00000000       0.00000000       0.00000000       0.00000000       0.00000000
H        2.80615512       1.62013441      12.29121606        2       1.00000000       0.00000000       0.00000000       0.00000000       0.00000000       0.00000000       0.00000000
H        1.40307756       4.05033604      12.29121606        2       1.00000000       0.00000000       0.00000000       0.00000000       0.00000000       0.00000000       0.00000000
H        4.20923268       4.05033604      12.29121606        2       1.00000000       0.00000000       0.00000000       0.00000000       0.00000000       0.00000000       0.00000000
H        0.00000000       0.00000000      14.58243212        1       1.00000000       0.00000000       0.00000000       0.00000000       0.00000000       0.00000000       0.00000000
H        2.80615512       0.00000000      14.58243212        1       1.00000000       0.00000000       0.00000000       0.00000000       0.00000000       0.00000000       0.00000000
H        1.40307756       2.43020162      14.58243212        1       1.00000000       0.00000000       0.00000000       0.00000000       0.00000000       0.00000000       0.00000000
H        4.20923268       2.43020162      14.58243212        1       1.00000000       0.00000000       0.00000000       0.00000000       0.00000000       0.00000000       0.00000000
H        0.00000035       1.62013467       7.77136650        0       1.00000000      -0.00000188       0.00000126       0.00000032      -0.00000409       0.00000070       0.00000052
H        2.80919924       1.62012516      16.81107142        0       1.00000000       0.00000153       0.00000092       0.00000046      -0.00000064       0.00000100      -0.00000046
H        1.40307857       4.05033583       7.77136697        0       1.00000000       0.00000043      -0.00000061      -0.00000033      -0.00000031      -0.00000003       0.00000012
H        5.60926803       1.62012474      16.81107114        0       1.00000000       0.00000137      -0.00000010       0.00000018      -0.00000175      -0.00000079       0.00000046
H        2.80615544       1.62013434       7.77136630        0       1.00000000       0.00000039      -0.00000064       0.00000028       0.00000315      -0.00000203       0.00000171
H        1.40307757       4.05032802      16.81106532        0       1.00000000       0.00000081       0.00000069      -0.00000030       0.00000107      -0.00000079       0.00000018
H        4.20923376       4.05033664       7.77136747        0       1.00000000      -0.00000049       0.00000104      -0.00000056       0.00000101       0.00000020      -0.00000287
19
Lattice="5.612310241546866 0.0 0.0 0.0 4.860403243099165 0.0 0.0 0.0 24.582432123328676" Properties=species:S:1:pos:R:3:tags:I:1:masses:R:1:momenta:R:3:forces:R:3 KEmax=24.559391461069055 iter=223083 volume=670.5618179858607 ns_energy=-12.523476319908365 last_walked_iter_clone=222492 energy=-12.52347631991327 stress="0.024004867509198738 -1.2323220102269289e-08 9.860237026464977e-09 -1.2323220102269289e-08 0.024132698085041537 -5.72011921425577e-09 9.860237026464977e-09 -5.72011921425577e-09 0.012739382314648497" pbc="T T F"
H        1.40307756       0.81006721      10.00000000        3       1.00000000       0.00000000       0.00000000       0.00000000       0.00000000       0.00000000       0.00000000
H        4.20923268       0.81006721      10.00000000        3       1.00000000       0.00000000       0.00000000       0.00000000       0.00000000       0.00000000       0.00000000
H        0.00000000       3.24026883      10.00000000        3       1.00000000       0.00000000       0.00000000       0.00000000       0.00000000       0.00000000       0.00000000
H        2.80615512       3.24026883      10.00000000        3       1.00000000       0.00000000       0.00000000       0.00000000       0.00000000       0.00000000       0.00000000
H        0.00000000       1.62013441      12.29121606        2       1.00000000       0.00000000       0.00000000       0.00000000       0.00000000       0.00000000       0.00000000
H        2.80615512       1.62013441      12.29121606        2       1.00000000       0.00000000       0.00000000       0.00000000       0.00000000       0.00000000       0.00000000
H        1.40307756       4.05033604      12.29121606        2       1.00000000       0.00000000       0.00000000       0.00000000       0.00000000       0.00000000       0.00000000
H        4.20923268       4.05033604      12.29121606        2       1.00000000       0.00000000       0.00000000       0.00000000       0.00000000       0.00000000       0.00000000
H        0.00000000       0.00000000      14.58243212        1       1.00000000       0.00000000       0.00000000       0.00000000       0.00000000       0.00000000       0.00000000
H        2.80615512       0.00000000      14.58243212        1       1.00000000       0.00000000       0.00000000       0.00000000       0.00000000       0.00000000       0.00000000
H        1.40307756       2.43020162      14.58243212        1       1.00000000       0.00000000       0.00000000       0.00000000       0.00000000       0.00000000       0.00000000
H        4.20923268       2.43020162      14.58243212        1       1.00000000       0.00000000       0.00000000       0.00000000       0.00000000       0.00000000       0.00000000
H       -0.00000173       1.62013303       7.77136713        0       1.00000000      -0.00000020      -0.00000042      -0.00000035      -0.00000409       0.00000070       0.00000052
H        2.80919880       1.62012460      16.81107152        0       1.00000000      -0.00000105       0.00000073      -0.00000006      -0.00000064       0.00000100      -0.00000046
H        1.40307695       4.05033535       7.77136717        0       1.00000000       0.00000027      -0.00000098       0.00000139      -0.00000031      -0.00000003       0.00000012
H        5.60926781       1.62012376      16.81107059        0       1.00000000      -0.00000005       0.00000040       0.00000024      -0.00000175      -0.00000079       0.00000046
H        2.80615443       1.62013341       7.77136674        0       1.00000000      -0.00000017      -0.00000131      -0.00000003       0.00000315      -0.00000203       0.00000171
H        1.40307760       4.05032735      16.81106520        0       1.00000000      -0.00000094      -0.00000068       0.00000124       0.00000107      -0.00000079       0.00000018
H        4.20923140       4.05033457       7.77136719        0       1.00000000      -0.00000051      -0.00000006       0.00000094       0.00000101       0.00000020      -0.00000287
19
Lattice="5.612310241546866 0.0 0.0 0.0 4.860403243099165 0.0 0.0 0.0 24.582432123328676" Properties=species:S:1:pos:R:3:tags:I:1:masses:R:1:momenta:R:3:forces:R:3 KEmax=24.559391461069055 iter=223083 volume=670.5618179858607 ns_energy=-12.523476319908543 last_walked_iter_clone=222592 energy=-12.52347631991327 stress="0.024004867509198738 -1.2323220102269289e-08 9.860237026464977e-09 -1.2323220102269289e-08 0.024132698085041537 -5.72011921425577e-09 9.860237026464977e-09 -5.72011921425577e-09 0.012739382314648497" pbc="T T F"
H        1.40307756       0.81006721      10.00000000        3       1.00000000       0.00000000       0.00000000       0.00000000       0.00000000       0.00000000       0.00000000
H        4.20923268       0.81006721      10.00000000        3       1.00000000       0.00000000       0.00000000       0.00000000       0.00000000       0.00000000       0.00000000
H        0.00000000       3.24026883      10.00000000        3       1.00000000       0.00000000       0.00000000       0.00000000       0.00000000       0.00000000       0.00000000
H        2.80615512       3.24026883      10.00000000        3       1.00000000       0.00000000       0.00000000       0.00000000       0.00000000       0.00000000       0.00000000
H        0.00000000       1.62013441      12.29121606        2       1.00000000       0.00000000       0.00000000       0.00000000       0.00000000       0.00000000       0.00000000
H        2.80615512       1.62013441      12.29121606        2       1.00000000       0.00000000       0.00000000       0.00000000       0.00000000       0.00000000       0.00000000
H        1.40307756       4.05033604      12.29121606        2       1.00000000       0.00000000       0.00000000       0.00000000       0.00000000       0.00000000       0.00000000
H        4.20923268       4.05033604      12.29121606        2       1.00000000       0.00000000       0.00000000       0.00000000       0.00000000       0.00000000       0.00000000
H        0.00000000       0.00000000      14.58243212        1       1.00000000       0.00000000       0.00000000       0.00000000       0.00000000       0.00000000       0.00000000
H        2.80615512       0.00000000      14.58243212        1       1.00000000       0.00000000       0.00000000       0.00000000       0.00000000       0.00000000       0.00000000
H        1.40307756       2.43020162      14.58243212        1       1.00000000       0.00000000       0.00000000       0.00000000       0.00000000       0.00000000       0.00000000
H        4.20923268       2.43020162      14.58243212        1       1.00000000       0.00000000       0.00000000       0.00000000       0.00000000       0.00000000       0.00000000
H        0.00000086       1.62013421       7.77136718        0       1.00000000       0.00000009      -0.00000045      -0.00000013      -0.00000409       0.00000070       0.00000052
H        2.80919798       1.62012425      16.81107152        0       1.00000000      -0.00000032       0.00000080       0.00000029      -0.00000064       0.00000100      -0.00000046
H        1.40307818       4.05033623       7.77136741        0       1.00000000      -0.00000136       0.00000168       0.00000120      -0.00000031      -0.00000003       0.00000012
H        5.60926732       1.62012521      16.81107161        0       1.00000000       0.00000073      -0.00000076      -0.00000056      -0.00000175      -0.00000079       0.00000046
H        2.80615545       1.62013447       7.77136674        0       1.00000000       0.00000142       0.00000001       0.00000055       0.00000315      -0.00000203       0.00000171
H        1.40307863       4.05032784      16.81106515        0       1.00000000       0.00000135       0.00000117      -0.00000149       0.00000107      -0.00000079       0.00000018
H        4.20923283       4.05033612       7.77136751        0       1.00000000       0.00000113      -0.00000014       0.00000098       0.00000101       0.00000020      -0.00000287
19
Lattice="5.612310241546866 0.0 0.0 0.0 4.860403243099165 0.0 0.0 0.0 24.582432123328676" Properties=species:S:1:pos:R:3:tags:I:1:masses:R:1:momenta:R:3:forces:R:3 KEmax=24.559391461069055 iter=223083 volume=670.5618179858607 ns_energy=-12.523476319908397 last_walked_iter_clone=222931 energy=-12.52347631991327 stress="0.024004867509198738 -1.2323220102269289e-08 9.860237026464977e-09 -1.2323220102269289e-08 0.024132698085041537 -5.72011921425577e-09 9.860237026464977e-09 -5.72011921425577e-09 0.012739382314648497" pbc="T T F"
H        1.40307756       0.81006721      10.00000000        3       1.00000000       0.00000000       0.00000000       0.00000000       0.00000000       0.00000000       0.00000000
H        4.20923268       0.81006721      10.00000000        3       1.00000000       0.00000000       0.00000000       0.00000000       0.00000000       0.00000000       0.00000000
H        0.00000000       3.24026883      10.00000000        3       1.00000000       0.00000000       0.00000000       0.00000000       0.00000000       0.00000000       0.00000000
H        2.80615512       3.24026883      10.00000000        3       1.00000000       0.00000000       0.00000000       0.00000000       0.00000000       0.00000000       0.00000000
H        0.00000000       1.62013441      12.29121606        2       1.00000000       0.00000000       0.00000000       0.00000000       0.00000000       0.00000000       0.00000000
H        2.80615512       1.62013441      12.29121606        2       1.00000000       0.00000000       0.00000000       0.00000000       0.00000000       0.00000000       0.00000000
H        1.40307756       4.05033604      12.29121606        2       1.00000000       0.00000000       0.00000000       0.00000000       0.00000000       0.00000000       0.00000000
H        4.20923268       4.05033604      12.29121606        2       1.00000000       0.00000000       0.00000000       0.00000000       0.00000000       0.00000000       0.00000000
H        0.00000000       0.00000000      14.58243212        1       1.00000000       0.00000000       0.00000000       0.00000000       0.00000000       0.00000000       0.00000000
H        2.80615512       0.00000000      14.58243212        1       1.00000000       0.00000000       0.00000000       0.00000000       0.00000000       0.00000000       0.00000000
H        1.40307756       2.43020162      14.58243212        1       1.00000000       0.00000000       0.00000000       0.00000000       0.00000000       0.00000000       0.00000000
H        4.20923268       2.43020162      14.58243212        1       1.00000000       0.00000000       0.00000000       0.00000000       0.00000000       0.00000000       0.00000000
H        0.00000025       1.62013443       7.77136706        0       1.00000000       0.00000015       0.00000009       0.00000031      -0.00000409       0.00000070       0.00000052
H        2.80919816       1.62012408      16.81107087        0       1.00000000       0.00000037       0.00000074      -0.00000034      -0.00000064       0.00000100      -0.00000046
H        1.40307802       4.05033686       7.77136797        0       1.00000000      -0.00000004      -0.00000090       0.00000038      -0.00000031      -0.00000003       0.00000012
H        5.60926688       1.62012447      16.81107035        0       1.00000000       0.00000024       0.00000057       0.00000068      -0.00000175      -0.00000079       0.00000046
H        2.80615586       1.62013369       7.77136643        0       1.00000000      -0.00000145      -0.00000063      -0.00000017       0.00000315      -0.00000203       0.00000171
H        1.40307826       4.05032708      16.81106582        0       1.00000000      -0.00000098      -0.00000119       0.00000069       0.00000107      -0.00000079       0.00000018
H        4.20923341       4.05033579       7.77136746        0       1.00000000      -0.00000056      -0.00000056       0.00000018       0.00000101       0.00000020      -0.00000287
19
Lattice="5.612310241546866 0.0 0.0 0.0 4.860403243099165 0.0 0.0 0.0 24.582432123328676" Properties=species:S:1:pos:R:3:tags:I:1:masses:R:1:momenta:R:3:forces:R:3 KEmax=24.559391461069055 iter=223083 volume=670.5618179858607 ns_energy=-12.52347631990868 last_walked_iter_clone=222322 energy=-12.52347631991327 stress="0.024004867509198738 -1.2323220102269289e-08 9.860237026464977e-09 -1.2323220102269289e-08 0.024132698085041537 -5.72011921425577e-09 9.860237026464977e-09 -5.72011921425577e-09 0.012739382314648497" pbc="T T F"
H        1.40307756       0.81006721      10.00000000        3       1.00000000       0.00000000       0.00000000       0.00000000       0.00000000       0.00000000       0.00000000
H        4.20923268       0.81006721      10.00000000        3       1.00000000       0.00000000       0.00000000       0.00000000       0.00000000       0.00000000       0.00000000
H        0.00000000       3.24026883      10.00000000        3       1.00000000       0.00000000       0.00000000       0.00000000       0.00000000       0.00000000       0.00000000
H        2.80615512       3.24026883      10.00000000        3       1.00000000       0.00000000       0.00000000       0.00000000       0.00000000       0.00000000       0.00000000
H        0.00000000       1.62013441      12.29121606        2       1.00000000       0.00000000       0.00000000       0.00000000       0.00000000       0.00000000       0.00000000
H        2.80615512       1.62013441      12.29121606        2       1.00000000       0.00000000       0.00000000       0.00000000       0.00000000       0.00000000       0.00000000
H        1.40307756       4.05033604      12.29121606        2       1.00000000       0.00000000       0.00000000       0.00000000       0.00000000       0.00000000       0.00000000
H        4.20923268       4.05033604      12.29121606        2       1.00000000       0.00000000       0.00000000       0.00000000       0.00000000       0.00000000       0.00000000
H        0.00000000       0.00000000      14.58243212        1       1.00000000       0.00000000       0.00000000       0.00000000       0.00000000       0.00000000       0.00000000
H        2.80615512       0.00000000      14.58243212        1       1.00000000       0.00000000       0.00000000       0.00000000       0.00000000       0.00000000       0.00000000
H        1.40307756       2.43020162      14.58243212        1       1.00000000       0.00000000       0.00000000       0.00000000       0.00000000       0.00000000       0.00000000
H        4.20923268       2.43020162      14.58243212        1       1.00000000       0.00000000       0.00000000       0.00000000       0.00000000       0.00000000       0.00000000
H       -0.00000030       1.62013462       7.77136684        0       1.00000000      -0.00000047      -0.00000105      -0.00000015      -0.00000409       0.00000070       0.00000052
H        2.80919803       1.62012527      16.81107123        0       1.00000000      -0.00000002       0.00000166      -0.00000033      -0.00000064       0.00000100      -0.00000046
H        1.40307788       4.05033618       7.77136707        0       1.00000000      -0.00000147      -0.00000020       0.00000109      -0.00000031      -0.00000003       0.00000012
H        5.60926744       1.62012478      16.81107119        0       1.00000000      -0.00000003      -0.00000065      -0.00000149      -0.00000175      -0.00000079       0.00000046
H        2.80615556       1.62013521       7.77136787        0       1.00000000       0.00000021      -0.00000078       0.00000146       0.00000315      -0.00000203       0.00000171
H        1.40307794       4.05032824      16.81106484        0       1.00000000      -0.00000029       0.00000039      -0.00000075       0.00000107      -0.00000079       0.00000018
H        4.20923249       4.05033697       7.77136802        0       1.00000000       0.00000103       0.00000129       0.00000010       0.00000101       0.00000020      -0.00000287
19
Lattice="5.612310241546866 0.0 0.0 0.0 4.860403243099165 0.0 0.0 0.0 24.582432123328676" Properties=species:S:1:pos:R:3:tags:I:1:masses:R:1:momenta:R:3:forces:R:3 KEmax=24.559391461069055 iter=223083 volume=670.5618179858607 ns_energy=-12.523476319908482 last_walked_iter_clone=222730 energy=-12.52347631991327 stress="0.024004867509198738 -1.2323220102269289e-08 9.860237026464977e-09 -1.2323220102269289e-08 0.024132698085041537 -5.72011921425577e-09 9.860237026464977e-09 -5.72011921425577e-09 0.012739382314648497" pbc="T T F"
H        1.40307756       0.81006721      10.00000000        3       1.00000000       0.00000000       0.00000000       0.00000000       0.00000000       0.00000000       0.00000000
H        4.20923268       0.81006721      10.00000000        3       1.00000000       0.00000000       0.00000000       0.00000000       0.00000000       0.00000000       0.00000000
H        0.00000000       3.24026883      10.00000000        3       1.00000000       0.00000000       0.00000000       0.00000000       0.00000000       0.00000000       0.00000000
H        2.80615512       3.24026883      10.00000000        3       1.00000000       0.00000000       0.00000000       0.00000000       0.00000000       0.00000000       0.00000000
H        0.00000000       1.62013441      12.29121606        2       1.00000000       0.00000000       0.00000000       0.00000000       0.00000000       0.00000000       0.00000000
H        2.80615512       1.62013441      12.29121606        2       1.00000000       0.00000000       0.00000000       0.00000000       0.00000000       0.00000000       0.00000000
H        1.40307756       4.05033604      12.29121606        2       1.00000000       0.00000000       0.00000000       0.00000000       0.00000000       0.00000000       0.00000000
H        4.20923268       4.05033604      12.29121606        2       1.00000000       0.00000000       0.00000000       0.00000000       0.00000000       0.00000000       0.00000000