19
Lattice="5.612310241546866 0.0 0.0 0.0 4.860403243099165 0.0 0.0 0.0 24.582432123328676" Properties=species:S:1:pos:R:3:tags:I:1:masses:R:1:momenta:R:3 KEmax=24.559391461069055 iter=99 volume=670.5618179858607 ns_energy=115.82620086671727 last_walked_iter_clone=24 ns_P=0.0 config_n_global=99 ns_KE=22.80035273874432 pbc="T T F"
H        1.40307756       0.81006721      10.00000000        3       1.00000000       0.00000000       0.00000000       0.00000000
H        4.20923268       0.81006721      10.00000000        3       1.00000000       0.00000000       0.00000000       0.00000000
H        0.00000000       3.24026883      10.00000000        3       1.00000000       0.00000000       0.00000000       0.00000000
H        2.80615512       3.24026883      10.00000000        3       1.00000000       0.00000000       0.00000000       0.00000000
H        0.00000000       1.62013441      12.29121606        2       1.00000000       0.00000000       0.00000000       0.00000000
H        2.80615512       1.62013441      12.29121606        2       1.00000000       0.00000000       0.00000000       0.00000000
H        1.40307756       4.05033604      12.29121606        2       1.00000000       0.00000000       0.00000000       0.00000000
H        4.20923268       4.05033604      12.29121606        2       1.00000000       0.00000000       0.00000000       0.00000000
H        0.00000000       0.00000000      14.58243212        1       1.00000000       0.00000000       0.00000000       0.00000000
H        2.80615512       0.00000000      14.58243212        1       1.00000000       0.00000000       0.00000000       0.00000000
H        1.40307756       2.43020162      14.58243212        1       1.00000000       0.00000000       0.00000000       0.00000000
H        4.20923268       2.43020162      14.58243212        1       1.00000000       0.00000000       0.00000000       0.00000000
H        0.51552408       2.91431296       6.89409711        0       1.00000000       1.34421223       1.02773179      -0.90152709
H        5.22653491       3.51888798      21.71217691        0       1.00000000       0.54931072       0.04291694       0.00950121
H        4.82541685       4.51895132       5.61388400        0       1.00000000       0.28068402      -1.07131262      -0.20215664
H        2.78151416       1.34108656      19.87056805        0       1.00000000       3.12802833       3.40210236       1.80418375
H        2.52953740       3.22795706       7.61775637        0       1.00000000       0.17890279      -0.83850047      -1.80855383
H        1.44070047       1.65212565      18.57729579        0       1.00000000       0.21140332       1.81002777       0.82235270
H        1.45200736       1.73035612       7.42393167        0       1.00000000      -1.84375445       0.96551453      -1.84528527
19
Lattice="5.612310241546866 0.0 0.0 0.0 4.860403243099165 0.0 0.0 0.0 24.582432123328676" Properties=species:S:1:pos:R:3:tags:I:1:masses:R:1:momenta:R:3 KEmax=24.559391461069055 iter=199 volume=670.5618179858607 ns_energy=17.053946596227615 last_walked_iter_clone=45 ns_P=0.0 config_n_global=199 ns_KE=23.286152449994766 pbc="T T F"
H        1.40307756       0.81006721      10.00000000        3       1.00000000       0.00000000       0.00000000       0.00000000
H        4.20923268       0.81006721      10.00000000        3       1.00000000       0.00000000       0.00000000       0.00000000
H        0.00000000       3.24026883      10.00000000        3       1.00000000       0.00000000       0.00000000       0.00000000
H        2.80615512       3.24026883      10.00000000        3       1.00000000       0.00000000       0.00000000       0.00000000
H        0.00000000       1.62013441      12.29121606        2       1.00000000       0.00000000       0.00000000       0.00000000
H        2.80615512       1.62013441      12.29121606        2       1.00000000       0.00000000       0.00000000       0.00000000
H        1.40307756       4.05033604      12.29121606        2       1.00000000       0.00000000       0.00000000       0.00000000
H        4.20923268       4.05033604      12.29121606        2       1.00000000       0.00000000       0.00000000       0.00000000
H        0.00000000       0.00000000      14.58243212        1       1.00000000       0.00000000       0.00000000       0.00000000
H        2.80615512       0.00000000      14.58243212        1       1.00000000       0.00000000       0.00000000       0.00000000
H        1.40307756       2.43020162      14.58243212        1       1.00000000       0.00000000       0.00000000       0.00000000
H        4.20923268       2.43020162      14.58243212        1       1.00000000       0.00000000       0.00000000       0.00000000
H        0.42767238       0.15713929       4.87040293        0       1.00000000       0.11437148      -0.33825255       2.34120144
H        3.55246760       2.70519474      19.29890891        0       1.00000000      -0.09209773       2.45326361       1.21256254
H        1.86388172       0.37219278       3.23288957        0       1.00000000       2.94882433       2.94827501      -2.95902273
H        3.17894723       0.70442427      18.27997758        0       1.00000000      -0.06727621       0.76101704      -0.77153819
H        0.33203078       3.13958612       6.10853471        0       1.00000000      -0.30123847       0.34590954      -2.34122502
H        4.30145151       0.20476317      22.44836392        0       1.00000000      -0.44019266       0.20263599      -0.33669361
H        4.11806731       1.42547339       7.33797530        0       1.00000000       0.08890628       0.30561597       0.04910288
19
Lattice="5.612310241546866 0.0 0.0 0.0 4.860403243099165 0.0 0.0 0.0 24.582432123328676" Properties=species:S:1:pos:R:3:tags:I:1:masses:R:1:momenta:R:3 KEmax=24.559391461069055 iter=299 volume=670.5618179858607 ns_energy=14.40336652503202 last_walked_iter_clone=262 ns_P=0.0 config_n_global=299 ns_KE=22.8987826042346 pbc="T T F"
H        1.40307756       0.81006721      10.00000000        3       1.00000000       0.00000000       0.00000000       0.00000000
H        4.20923268       0.81006721      10.00000000        3       1.00000000       0.00000000       0.00000000       0.00000000
H        0.00000000       3.24026883      10.00000000        3       1.00000000       0.00000000       0.00000000       0.00000000
H        2.80615512       3.24026883      10.00000000        3       1.00000000       0.00000000       0.00000000       0.00000000
H        0.00000000       1.62013441      12.29121606        2       1.00000000       0.00000000       0.00000000       0.00000000
H        2.80615512       1.62013441      12.29121606        2       1.00000000       0.00000000       0.00000000       0.00000000
H        1.40307756       4.05033604      12.29121606        2       1.00000000       0.00000000       0.00000000       0.00000000
H        4.20923268       4.05033604      12.29121606        2       1.00000000       0.00000000       0.00000000       0.00000000
H        0.00000000       0.00000000      14.58243212        1       1.00000000       0.00000000       0.00000000       0.00000000
H        2.80615512       0.00000000      14.58243212        1       1.00000000       0.00000000       0.00000000       0.00000000
H        1.40307756       2.43020162      14.58243212        1       1.00000000       0.00000000       0.00000000       0.00000000
H        4.20923268       2.43020162      14.58243212        1       1.00000000       0.00000000       0.00000000       0.00000000
H        2.06263714       2.26199546       3.54304031        0       1.00000000       0.18157984      -1.27424610      -0.58750722
H        3.92478487       4.46062452      21.78633400        0       1.00000000      -0.81151421      -0.98807566      -0.93922890
H        5.56093551       0.07562529       0.52415400        0       1.00000000       1.73332942      -2.20933673       0.46904939
H        3.41551193       0.15565910      18.29920021        0       1.00000000      -3.39529521       0.36733291       1.48584035
H        2.06975600       0.43006906       6.05891602        0       1.00000000      -2.15669295      -0.02204892       0.47081720
H        2.99104665       3.03434678      23.93937504        0       1.00000000       0.61006318      -0.88668550      -1.49406978
H        1.10756317       3.21191602       7.61767419        0       1.00000000       1.15011792       3.11692202      -0.01866770
19
Lattice="5.612310241546866 0.0 0.0 0.0 4.860403243099165 0.0 0.0 0.0 24.582432123328676" Properties=species:S:1:pos:R:3:tags:I:1:masses:R:1:momenta:R:3 KEmax=24.559391461069055 iter=399 volume=670.5618179858607 ns_energy=12.878053291618498 last_walked_iter_clone=321 ns_P=0.0 config_n_global=399 ns_KE=21.255656981195724 pbc="T T F"
H        1.40307756       0.81006721      10.00000000        3       1.00000000       0.00000000       0.00000000       0.00000000
H        4.20923268       0.81006721      10.00000000        3       1.00000000       0.00000000       0.00000000       0.00000000
H        0.00000000       3.24026883      10.00000000        3       1.00000000       0.00000000       0.00000000       0.00000000
H        2.80615512       3.24026883      10.00000000        3       1.00000000       0.00000000       0.00000000       0.00000000
H        0.00000000       1.62013441      12.29121606        2       1.00000000       0.00000000       0.00000000       0.00000000
H        2.80615512       1.62013441      12.29121606        2       1.00000000       0.00000000       0.00000000       0.00000000
H        1.40307756       4.05033604      12.29121606        2       1.00000000       0.00000000       0.00000000       0.00000000
H        4.20923268       4.05033604      12.29121606        2       1.00000000       0.00000000       0.00000000       0.00000000
H        0.00000000       0.00000000      14.58243212        1       1.00000000       0.00000000       0.00000000       0.00000000
H        2.80615512       0.00000000      14.58243212        1       1.00000000       0.00000000       0.00000000       0.00000000
H        1.40307756       2.43020162      14.58243212        1       1.00000000       0.00000000       0.00000000       0.00000000
H        4.20923268       2.43020162      14.58243212        1       1.00000000       0.00000000       0.00000000       0.00000000
H        2.07392645       1.79031660       3.55490129        0       1.00000000       0.82823499      -2.38497367      -2.99472728
H        4.44225822       4.78290014      22.45294323        0       1.00000000      -0.66255281      -0.82228770       0.17352672
H        1.21318374       2.70089196       5.95175115        0       1.00000000      -2.32147644      -2.60363194       0.01594650
H        5.36825867       2.69156933      19.11511650        0       1.00000000       1.70543868      -0.24460092       0.56938133
H        4.20741385       2.63804243       5.18180463        0       1.00000000       0.94282181       1.46732118       0.16315878
H        1.43786759       3.61652960      22.82558500        0       1.00000000       2.05483837      -0.39422686       0.29822096
H        0.99454936       0.06515222       1.33633164        0       1.00000000       1.16863620      -1.26473228       0.24923516
19
Lattice="5.612310241546866 0.0 0.0 0.0 4.860403243099165 0.0 0.0 0.0 24.582432123328676" Properties=species:S:1:pos:R:3:tags:I:1:masses:R:1:momenta:R:3 KEmax=24.559391461069055 iter=499 volume=670.5618179858607 ns_energy=11.391530960830442 last_walked_iter_clone=432 ns_P=0.0 config_n_global=499 ns_KE=19.07775599847712 pbc="T T F"
H        1.40307756       0.81006721      10.00000000        3       1.00000000       0.00000000       0.00000000       0.00000000
H        4.20923268       0.81006721      10.00000000        3       1.00000000       0.00000000       0.00000000       0.00000000
H        0.00000000       3.24026883      10.00000000        3       1.00000000       0.00000000       0.00000000       0.00000000
H        2.80615512       3.24026883      10.00000000        3       1.00000000       0.00000000       0.00000000       0.00000000
H        0.00000000       1.62013441      12.29121606        2       1.00000000       0.00000000       0.00000000       0.00000000
H        2.80615512       1.62013441      12.29121606        2       1.00000000       0.00000000       0.00000000       0.00000000
H        1.40307756       4.05033604      12.29121606        2       1.00000000       0.00000000       0.00000000       0.00000000
H        4.20923268       4.05033604      12.29121606        2       1.00000000       0.00000000       0.00000000       0.00000000
H        0.00000000       0.00000000      14.58243212        1       1.00000000       0.00000000       0.00000000       0.00000000
H        2.80615512       0.00000000      14.58243212        1       1.00000000       0.00000000       0.00000000       0.00000000
H        1.40307756       2.43020162      14.58243212        1       1.00000000       0.00000000       0.00000000       0.00000000
H        4.20923268       2.43020162      14.58243212        1       1.00000000       0.00000000       0.00000000       0.00000000
H        2.10958466       1.55347461       4.32954162        0       1.00000000       1.67825064       1.24408771       1.13793176
H        0.53837808       0.58588695      21.10806051        0       1.00000000       1.55829045       0.21534215      -1.49232475
H        0.11649129       2.15320110       6.71475110        0       1.00000000      -0.85067765      -0.85532040       0.38528474
H        3.57502442       0.48853522      22.05280232        0       1.00000000       1.19447192      -0.83908569       0.06744065
H        3.94093566       3.42058973       3.86552383        0       1.00000000      -2.59499491      -1.03074484      -2.17954856
H        3.57289897       2.00280558      20.19456756        0       1.00000000       0.97338366       1.76121535      -0.11251059
H        4.24303178       2.00920605       2.12309383        0       1.00000000       1.35780438       1.55672187       1.78317926
19
Lattice="5.612310241546866 0.0 0.0 0.0 4.860403243099165 0.0 0.0 0.0 24.582432123328676" Properties=species:S:1:pos:R:3:tags:I:1:masses:R:1:momenta:R:3 KEmax=24.559391461069055 iter=599 volume=670.5618179858607 ns_energy=10.093236489768582 last_walked_iter_clone=561 ns_P=0.0 config_n_global=599 ns_KE=18.339105381727897 pbc="T T F"
H        1.40307756       0.81006721      10.00000000        3       1.00000000       0.00000000       0.00000000       0.00000000
H        4.20923268       0.81006721      10.00000000        3       1.00000000       0.00000000       0.00000000       0.00000000
H        0.00000000       3.24026883      10.00000000        3       1.00000000       0.00000000       0.00000000       0.00000000
H        2.80615512       3.24026883      10.00000000        3       1.00000000       0.00000000       0.00000000       0.00000000
H        0.00000000       1.62013441      12.29121606        2       1.00000000       0.00000000       0.00000000       0.00000000
H        2.80615512       1.62013441      12.29121606        2       1.00000000       0.00000000       0.00000000       0.00000000
H        1.40307756       4.05033604      12.29121606        2       1.00000000       0.00000000       0.00000000       0.00000000
H        4.20923268       4.05033604      12.29121606        2       1.00000000       0.00000000       0.00000000       0.00000000
H        0.00000000       0.00000000      14.58243212        1       1.00000000       0.00000000       0.00000000       0.00000000
H        2.80615512       0.00000000      14.58243212        1       1.00000000       0.00000000       0.00000000       0.00000000
H        1.40307756       2.43020162      14.58243212        1       1.00000000       0.00000000       0.00000000       0.00000000
H        4.20923268       2.43020162      14.58243212        1       1.00000000       0.00000000       0.00000000       0.00000000
H        1.70619973       4.28146212       8.03647554        0       1.00000000       0.67645749       1.52047264      -0.15657781
H        3.46632240       2.18700680      16.76801566        0       1.00000000       0.69200059       0.46982572      -0.57960119
H        0.71123236       1.02248805       6.39873521        0       1.00000000       0.67971889      -0.30348202      -0.37793576
H        1.34314195       0.02630220      19.24936796        0       1.00000000       3.50809118      -0.85410728      -1.75537800
H        3.53748468       2.75766790       6.24498399        0       1.00000000       1.81596451      -0.75992869      -0.08509182
H        3.03235159       2.94286751      24.51992717        0       1.00000000      -1.10413304      -1.82607277      -1.79446296
H        3.99918615       0.92638363       1.30709451        0       1.00000000      -1.19415335      -1.24392144       1.18518497
19
Lattice="5.612310241546866 0.0 0.0 0.0 4.860403243099165 0.0 0.0 0.0 24.582432123328676" Properties=species:S:1:pos:R:3:tags:I:1:masses:R:1:momenta:R:3 KEmax=24.559391461069055 iter=699 volume=670.5618179858607 ns_energy=8.918311494296638 last_walked_iter_clone=551 ns_P=0.0 config_n_global=699 ns_KE=16.22763631335528 pbc="T T F"
H        1.40307756       0.81006721      10.00000000        3       1.00000000       0.00000000       0.00000000       0.00000000
H        4.20923268       0.81006721      10.00000000        3       1.00000000       0.00000000       0.00000000       0.00000000
H        0.00000000       3.24026883      10.00000000        3       1.00000000       0.00000000       0.00000000       0.00000000
H        2.80615512       3.24026883      10.00000000        3       1.00000000       0.00000000       0.00000000       0.00000000
H        0.00000000       1.62013441      12.29121606        2       1.00000000       0.00000000       0.00000000       0.00000000
H        2.80615512       1.62013441      12.29121606        2       1.00000000       0.00000000       0.00000000       0.00000000
H        1.40307756       4.05033604      12.29121606        2       1.00000000       0.00000000       0.00000000       0.00000000
H        4.20923268       4.05033604      12.29121606        2       1.00000000       0.00000000       0.00000000       0.00000000
H        0.00000000       0.00000000      14.58243212        1       1.00000000       0.00000000       0.00000000       0.00000000
H        2.80615512       0.00000000      14.58243212        1       1.00000000       0.00000000       0.00000000       0.00000000
H        1.40307756       2.43020162      14.58243212        1       1.00000000       0.00000000       0.00000000       0.00000000
H        4.20923268       2.43020162      14.58243212        1       1.00000000       0.00000000       0.00000000       0.00000000
H        2.50079583       2.42554916       0.94632025        0       1.00000000      -0.54866269      -0.68017222       0.31654664
H        0.88526141       2.88696179      17.78629941        0       1.00000000       1.39851468      -0.12108121       1.10335965
H        0.81841698       4.31135612       8.21118304        0       1.00000000      -2.00608526       1.19298079       0.82218323
H        4.85496503       3.35004645      20.81850908        0       1.00000000      -1.55205531      -0.65430310       1.68182993
H        5.06121578       1.28443675       0.50689586        0       1.00000000      -0.50519342       1.38886740      -0.03387490
H        4.45827838       1.11293844      16.36892137        0       1.00000000       1.02511417       2.22979153      -1.93608206
H        2.17942360       2.06254852       7.60621854        0       1.00000000      -0.04593297       1.03382999       1.89391521
19
Lattice="5.612310241546866 0.0 0.0 0.0 4.860403243099165 0.0 0.0 0.0 24.582432123328676" Properties=species:S:1:pos:R:3:tags:I:1:masses:R:1:momenta:R:3 KEmax=24.559391461069055 iter=799 volume=670.5618179858607 ns_energy=7.748364711837504 last_walked_iter_clone=716 ns_P=0.0 config_n_global=799 ns_KE=14.889182883201537 pbc="T T F"
H        1.40307756       0.81006721      10.00000000        3       1.00000000       0.00000000       0.00000000       0.00000000
H        4.20923268       0.81006721      10.00000000        3       1.00000000       0.00000000       0.00000000       0.00000000
H        0.00000000       3.24026883      10.00000000        3       1.00000000       0.00000000       0.00000000       0.00000000
H        2.80615512       3.24026883      10.00000000        3       1.00000000       0.00000000       0.00000000       0.00000000
H        0.00000000       1.62013441      12.29121606        2       1.00000000       0.00000000       0.00000000       0.00000000
H        2.80615512       1.62013441      12.29121606        2       1.00000000       0.00000000       0.00000000       0.00000000
H        1.40307756       4.05033604      12.29121606        2       1.00000000       0.00000000       0.00000000       0.00000000
H        4.20923268       4.05033604      12.29121606        2       1.00000000       0.00000000       0.00000000       0.00000000
H        0.00000000       0.00000000      14.58243212        1       1.00000000       0.00000000       0.00000000       0.00000000
H        2.80615512       0.00000000      14.58243212        1       1.00000000       0.00000000       0.00000000       0.00000000
H        1.40307756       2.43020162      14.58243212        1       1.00000000       0.00000000       0.00000000       0.00000000
H        4.20923268       2.43020162      14.58243212        1       1.00000000       0.00000000       0.00000000       0.00000000
H        1.55974267       1.88914637       0.18588357        0       1.00000000       0.80239504      -0.45620202       0.04651698
H        1.99452032       4.82697756      17.29435478        0       1.00000000      -1.83916502       0.57594662       2.55214082
H        5.45641970       4.36631784       7.60441291        0       1.00000000       0.19388099       0.16329057      -1.67243717
H        3.16432378       3.50292991      18.52664365        0       1.00000000      -1.89481963       0.18253801       1.35318979
H        4.20040890       0.45263918       0.04432675        0       1.00000000       0.92849964       0.59250250      -1.00561611
H        5.55130733       0.77930686      23.97710000        0       1.00000000       0.64132764       1.45228686       0.81291135
H        3.19442290       4.08492139       6.84001430        0       1.00000000      -1.78139613      -0.04791123      -1.34131628
19
Lattice="5.612310241546866 0.0 0.0 0.0 4.860403243099165 0.0 0.0 0.0 24.582432123328676" Properties=species:S:1:pos:R:3:tags:I:1:masses:R:1:momenta:R:3 KEmax=24.559391461069055 iter=899 volume=670.5618179858607 ns_energy=6.636733790261215 last_walked_iter_clone=818 ns_P=0.0 config_n_global=899 ns_KE=14.962956272781284 pbc="T T F"
H        1.40307756       0.81006721      10.00000000        3       1.00000000       0.00000000       0.00000000       0.00000000
H        4.20923268       0.81006721      10.00000000        3       1.00000000       0.00000000       0.00000000       0.00000000
H        0.00000000       3.24026883      10.00000000        3       1.00000000       0.00000000       0.00000000       0.00000000
H        2.80615512       3.24026883      10.00000000        3       1.00000000       0.00000000       0.00000000       0.00000000
H        0.00000000       1.62013441      12.29121606        2       1.00000000       0.00000000       0.00000000       0.00000000
H        2.80615512       1.62013441      12.29121606        2       1.00000000       0.00000000       0.00000000       0.00000000
H        1.40307756       4.05033604      12.29121606        2       1.00000000       0.00000000       0.00000000       0.00000000
H        4.20923268       4.05033604      12.29121606        2       1.00000000       0.00000000       0.00000000       0.00000000
H        0.00000000       0.00000000      14.58243212        1       1.00000000       0.00000000       0.00000000       0.00000000
H        2.80615512       0.00000000      14.58243212        1       1.00000000       0.00000000       0.00000000       0.00000000
H        1.40307756       2.43020162      14.58243212        1       1.00000000       0.00000000       0.00000000       0.00000000
H        4.20923268       2.43020162      14.58243212        1       1.00000000       0.00000000       0.00000000       0.00000000
H        0.10420991       2.62896536       0.15753622        0       1.00000000      -2.33652542       1.08878147       0.28178381
H        0.64965416       2.97170846      20.28506616        0       1.00000000      -0.37099950       0.26484013      -2.74727295
H        4.66134947       0.93493954       6.64085612        0       1.00000000       1.66700961       1.75469736      -1.84031030
H        4.71427707       1.37982834      22.16663251        0       1.00000000       0.70339400      -0.61936325      -0.44326701
H        1.44138310       2.11091517       3.62993075        0       1.00000000      -0.01006360       0.06542970      -0.20743946
H        3.01162179       3.49700149      21.03087792        0       1.00000000       0.86524620       1.19980543       0.09641805
H        3.60414429       1.89912105       1.71506208        0       1.00000000       0.88278129       1.43253576       0.22490836
19
Lattice="5.612310241546866 0.0 0.0 0.0 4.860403243099165 0.0 0.0 0.0 24.582432123328676" Properties=species:S:1:pos:R:3:tags:I:1:masses:R:1:momenta:R:3 KEmax=24.559391461069055 iter=999 volume=670.5618179858607 ns_energy=5.765783018945102 last_walked_iter_clone=901 ns_P=0.0 config_n_global=999 ns_KE=13.85029211473968 pbc="T T F"
H        1.40307756       0.81006721      10.00000000        3       1.00000000       0.00000000       0.00000000       0.00000000
H        4.20923268       0.81006721      10.00000000        3       1.00000000       0.00000000       0.00000000       0.00000000
H        0.00000000       3.24026883      10.00000000        3       1.00000000       0.00000000       0.00000000       0.00000000
H        2.80615512       3.24026883      10.00000000        3       1.00000000       0.00000000       0.00000000       0.00000000
H        0.00000000       1.62013441      12.29121606        2       1.00000000       0.00000000       0.00000000       0.00000000
H        2.80615512       1.62013441      12.29121606        2       1.00000000       0.00000000       0.00000000       0.00000000
H        1.40307756       4.05033604      12.29121606        2       1.00000000       0.00000000       0.00000000       0.00000000
H        4.20923268       4.05033604      12.29121606        2       1.00000000       0.00000000       0.00000000       0.00000000
H        0.00000000       0.00000000      14.58243212        1       1.00000000       0.00000000       0.00000000       0.00000000
H        2.80615512       0.00000000      14.58243212        1       1.00000000       0.00000000       0.00000000       0.00000000
H        1.40307756       2.43020162      14.58243212        1       1.00000000       0.00000000       0.00000000       0.00000000
H        4.20923268       2.43020162      14.58243212        1       1.00000000       0.00000000       0.00000000       0.00000000
H        2.08694090       0.33761404       7.19027114        0       1.00000000       0.76119201      -0.61843736       0.72511108
H        5.17030575       1.05660614      19.84222439        0       1.00000000       0.03399826      -1.18716280       2.58682109
H        3.53085098       0.39824113       4.04068538        0       1.00000000       1.03180798      -1.89430149      -0.59947240
H        3.38655259       2.84175938      21.87510485        0       1.00000000      -1.59010216       1.58045483      -0.19968626
H       -0.15369144       3.22439628       0.18010471        0       1.00000000      -1.52335744      -0.24275747       0.83083231
H        1.71615112       3.10537770      19.64862114        0       1.00000000      -1.54186785      -0.46576934       0.45899648
H       -0.05868069       0.50383918       2.85095017        0       1.00000000      -1.32249009       0.24313082       0.59106347
19
Lattice="5.612310241546866 0.0 0.0 0.0 4.860403243099165 0.0 0.0 0.0 24.582432123328676" Properties=species:S:1:pos:R:3:tags:I:1:masses:R:1:momenta:R:3 KEmax=24.559391461069055 iter=1099 volume=670.5618179858607 ns_energy=4.899539641381183 last_walked_iter_clone=1032 ns_P=0.0 config_n_global=1099 ns_KE=12.386586652992412 pbc="T T F"
H        1.40307756       0.81006721      10.00000000        3       1.00000000       0.00000000       0.00000000       0.00000000
H        4.20923268       0.81006721      10.00000000        3       1.00000000       0.00000000       0.00000000       0.00000000
H        0.00000000       3.24026883      10.00000000        3       1.00000000       0.00000000       0.00000000       0.00000000
H        2.80615512       3.24026883      10.00000000        3       1.00000000       0.00000000       0.00000000       0.00000000
H        0.00000000       1.62013441      12.29121606        2       1.00000000       0.00000000       0.00000000       0.00000000
H        2.80615512       1.62013441      12.29121606        2       1.00000000       0.00000000       0.00000000       0.00000000
H        1.40307756       4.05033604      12.29121606        2       1.00000000       0.00000000       0.00000000       0.00000000
H        4.20923268       4.05033604      12.29121606        2       1.00000000       0.00000000       0.00000000       0.00000000
H        0.00000000       0.00000000      14.58243212        1       1.00000000       0.00000000       0.00000000       0.00000000
H        2.80615512       0.00000000      14.58243212        1       1.00000000       0.00000000       0.00000000       0.00000000