19
Lattice="5.612310241546866 0.0 0.0 0.0 4.860403243099165 0.0 0.0 0.0 24.582432123328676" Properties=species:S:1:pos:R:3:tags:I:1:masses:R:1:momenta:R:3:forces:R:3 KEmax=24.559391461069055 iter=107203 volume=670.5618179858607 ns_energy=-12.52347632009028 last_walked_iter_clone=107112 energy=-12.52347632009415 stress="0.024004873754779072 -4.954631098211333e-10 -5.388268874898171e-09 -4.954631098211333e-10 0.024132708592571727 -6.338008210139959e-09 -5.388268874898171e-09 -6.338008210139959e-09 0.012739406107861697" pbc="T T F"
H        1.40307756       0.81006721      10.00000000        3       1.00000000       0.00000000       0.00000000       0.00000000       0.00000000       0.00000000       0.00000000
H        4.20923268       0.81006721      10.00000000        3       1.00000000       0.00000000       0.00000000       0.00000000       0.00000000       0.00000000       0.00000000
H        0.00000000       3.24026883      10.00000000        3       1.00000000       0.00000000       0.00000000       0.00000000       0.00000000       0.00000000       0.00000000
H        2.80615512       3.24026883      10.00000000        3       1.00000000       0.00000000       0.00000000       0.00000000       0.00000000       0.00000000       0.00000000
H        0.00000000       1.62013441      12.29121606        2       1.00000000       0.00000000       0.00000000       0.00000000       0.00000000       0.00000000       0.00000000
H        2.80615512       1.62013441      12.29121606        2       1.00000000       0.00000000       0.00000000       0.00000000       0.00000000       0.00000000       0.00000000
H        1.40307756       4.05033604      12.29121606        2       1.00000000       0.00000000       0.00000000       0.00000000       0.00000000       0.00000000       0.00000000
H        4.20923268       4.05033604      12.29121606        2       1.00000000       0.00000000       0.00000000       0.00000000       0.00000000       0.00000000       0.00000000
H        0.00000000       0.00000000      14.58243212        1       1.00000000       0.00000000       0.00000000       0.00000000       0.00000000       0.00000000       0.00000000
H        2.80615512       0.00000000      14.58243212        1       1.00000000       0.00000000       0.00000000       0.00000000       0.00000000       0.00000000       0.00000000
H        1.40307756       2.43020162      14.58243212        1       1.00000000       0.00000000       0.00000000       0.00000000       0.00000000       0.00000000       0.00000000
H        4.20923268       2.43020162      14.58243212        1       1.00000000       0.00000000       0.00000000       0.00000000       0.00000000       0.00000000       0.00000000
H       -0.00000123       1.62013495       7.77136733        0       1.00000000      -0.00000062       0.00000020      -0.00000021      -0.00000214      -0.00000236       0.00000015
H        1.40612080       4.05032601      16.81107082        0       1.00000000      -0.00000122       0.00000065       0.00000186      -0.00000110      -0.00000023      -0.00000014
H        2.80615439       1.62013439       7.77136633        0       1.00000000       0.00000138      -0.00000175      -0.00000243       0.00000266      -0.00000379       0.00000167
H       -0.00000017       1.62012602      16.81106428        0       1.00000000       0.00000028       0.00000009      -0.00000092      -0.00000009       0.00000052       0.00000117
H        4.20923142       4.05033668       7.77136632        0       1.00000000      -0.00000040       0.00000082      -0.00000009      -0.00000421       0.00000486      -0.00000231
H        4.20618932       4.05032606      16.81107151        0       1.00000000      -0.00000094       0.00000028      -0.00000007       0.00000170      -0.00000101      -0.00000025
H        1.40307613       4.05033665       7.77136697        0       1.00000000      -0.00000099      -0.00000122      -0.00000050       0.00000361      -0.00000009       0.00000335
19
Lattice="5.612310241546866 0.0 0.0 0.0 4.860403243099165 0.0 0.0 0.0 24.582432123328676" Properties=species:S:1:pos:R:3:tags:I:1:masses:R:1:momenta:R:3:forces:R:3 KEmax=24.559391461069055 iter=107203 volume=670.5618179858607 ns_energy=-12.523476320090245 last_walked_iter_clone=106618 energy=-12.52347632009415 stress="0.024004873754779072 -4.954631098211333e-10 -5.388268874898171e-09 -4.954631098211333e-10 0.024132708592571727 -6.338008210139959e-09 -5.388268874898171e-09 -6.338008210139959e-09 0.012739406107861697" pbc="T T F"
H        1.40307756       0.81006721      10.00000000        3       1.00000000       0.00000000       0.00000000       0.00000000       0.00000000       0.00000000       0.00000000
H        4.20923268       0.81006721      10.00000000        3       1.00000000       0.00000000       0.00000000       0.00000000       0.00000000       0.00000000       0.00000000
H        0.00000000       3.24026883      10.00000000        3       1.00000000       0.00000000       0.00000000       0.00000000       0.00000000       0.00000000       0.00000000
H        2.80615512       3.24026883      10.00000000        3       1.00000000       0.00000000       0.00000000       0.00000000       0.00000000       0.00000000       0.00000000
H        0.00000000       1.62013441      12.29121606        2       1.00000000       0.00000000       0.00000000       0.00000000       0.00000000       0.00000000       0.00000000
H        2.80615512       1.62013441      12.29121606        2       1.00000000       0.00000000       0.00000000       0.00000000       0.00000000       0.00000000       0.00000000
H        1.40307756       4.05033604      12.29121606        2       1.00000000       0.00000000       0.00000000       0.00000000       0.00000000       0.00000000       0.00000000
H        4.20923268       4.05033604      12.29121606        2       1.00000000       0.00000000       0.00000000       0.00000000       0.00000000       0.00000000       0.00000000
H        0.00000000       0.00000000      14.58243212        1       1.00000000       0.00000000       0.00000000       0.00000000       0.00000000       0.00000000       0.00000000
H        2.80615512       0.00000000      14.58243212        1       1.00000000       0.00000000       0.00000000       0.00000000       0.00000000       0.00000000       0.00000000
H        1.40307756       2.43020162      14.58243212        1       1.00000000       0.00000000       0.00000000       0.00000000       0.00000000       0.00000000       0.00000000
H        4.20923268       2.43020162      14.58243212        1       1.00000000       0.00000000       0.00000000       0.00000000       0.00000000       0.00000000       0.00000000
H        5.61231156       1.62013424       7.77136665        0       1.00000000      -0.00000101      -0.00000114      -0.00000213      -0.00000214      -0.00000236       0.00000015
H        1.40612096       4.05032606      16.81107109        0       1.00000000       0.00000008       0.00000126       0.00000110      -0.00000110      -0.00000023      -0.00000014
H        2.80615642       1.62013441       7.77136716        0       1.00000000       0.00000145       0.00000032       0.00000043       0.00000266      -0.00000379       0.00000167
H        5.61230983       1.62012524      16.81106500        0       1.00000000       0.00000237       0.00000096       0.00000031      -0.00000009       0.00000052       0.00000117
H        4.20923301       4.05033637       7.77136742        0       1.00000000      -0.00000039       0.00000162      -0.00000107      -0.00000421       0.00000486      -0.00000231
H        4.20618993       4.05032609      16.81107135        0       1.00000000       0.00000083       0.00000010       0.00000010       0.00000170      -0.00000101      -0.00000025
H        1.40307846       4.05033559       7.77136634        0       1.00000000      -0.00000013      -0.00000089       0.00000024       0.00000361      -0.00000009       0.00000335
19
Lattice="5.612310241546866 0.0 0.0 0.0 4.860403243099165 0.0 0.0 0.0 24.582432123328676" Properties=species:S:1:pos:R:3:tags:I:1:masses:R:1:momenta:R:3:forces:R:3 KEmax=24.559391461069055 iter=107203 volume=670.5618179858607 ns_energy=-12.523476320090307 last_walked_iter_clone=107091 energy=-12.52347632009415 stress="0.024004873754779072 -4.954631098211333e-10 -5.388268874898171e-09 -4.954631098211333e-10 0.024132708592571727 -6.338008210139959e-09 -5.388268874898171e-09 -6.338008210139959e-09 0.012739406107861697" pbc="T T F"
H        1.40307756       0.81006721      10.00000000        3       1.00000000       0.00000000       0.00000000       0.00000000       0.00000000       0.00000000       0.00000000
H        4.20923268       0.81006721      10.00000000        3       1.00000000       0.00000000       0.00000000       0.00000000       0.00000000       0.00000000       0.00000000
H        0.00000000       3.24026883      10.00000000        3       1.00000000       0.00000000       0.00000000       0.00000000       0.00000000       0.00000000       0.00000000
H        2.80615512       3.24026883      10.00000000        3       1.00000000       0.00000000       0.00000000       0.00000000       0.00000000       0.00000000       0.00000000
H        0.00000000       1.62013441      12.29121606        2       1.00000000       0.00000000       0.00000000       0.00000000       0.00000000       0.00000000       0.00000000
H        2.80615512       1.62013441      12.29121606        2       1.00000000       0.00000000       0.00000000       0.00000000       0.00000000       0.00000000       0.00000000
H        1.40307756       4.05033604      12.29121606        2       1.00000000       0.00000000       0.00000000       0.00000000       0.00000000       0.00000000       0.00000000
H        4.20923268       4.05033604      12.29121606        2       1.00000000       0.00000000       0.00000000       0.00000000       0.00000000       0.00000000       0.00000000
H        0.00000000       0.00000000      14.58243212        1       1.00000000       0.00000000       0.00000000       0.00000000       0.00000000       0.00000000       0.00000000
H        2.80615512       0.00000000      14.58243212        1       1.00000000       0.00000000       0.00000000       0.00000000       0.00000000       0.00000000       0.00000000
H        1.40307756       2.43020162      14.58243212        1       1.00000000       0.00000000       0.00000000       0.00000000       0.00000000       0.00000000       0.00000000
H        4.20923268       2.43020162      14.58243212        1       1.00000000       0.00000000       0.00000000       0.00000000       0.00000000       0.00000000       0.00000000
H       -0.00000030       1.62013398       7.77136775        0       1.00000000      -0.00000192       0.00000215       0.00000007      -0.00000214      -0.00000236       0.00000015
H        1.40612118       4.05032675      16.81107110        0       1.00000000       0.00000123      -0.00000046      -0.00000132      -0.00000110      -0.00000023      -0.00000014
H        2.80615509       1.62013585       7.77136733        0       1.00000000       0.00000141      -0.00000124       0.00000031       0.00000266      -0.00000379       0.00000167
H        5.61230989       1.62012723      16.81106481        0       1.00000000       0.00000013      -0.00000020       0.00000049      -0.00000009       0.00000052       0.00000117
H        4.20923241       4.05033622       7.77136719        0       1.00000000      -0.00000113      -0.00000004      -0.00000016      -0.00000421       0.00000486      -0.00000231
H        4.20618945       4.05032771      16.81107077        0       1.00000000       0.00000028      -0.00000082      -0.00000096       0.00000170      -0.00000101      -0.00000025
H        1.40307751       4.05033705       7.77136781        0       1.00000000      -0.00000058      -0.00000006       0.00000055       0.00000361      -0.00000009       0.00000335
19
Lattice="5.612310241546866 0.0 0.0 0.0 4.860403243099165 0.0 0.0 0.0 24.582432123328676" Properties=species:S:1:pos:R:3:tags:I:1:masses:R:1:momenta:R:3:forces:R:3 KEmax=24.559391461069055 iter=107203 volume=670.5618179858607 ns_energy=-12.52347632009001 last_walked_iter_clone=106397 energy=-12.52347632009415 stress="0.024004873754779072 -4.954631098211333e-10 -5.388268874898171e-09 -4.954631098211333e-10 0.024132708592571727 -6.338008210139959e-09 -5.388268874898171e-09 -6.338008210139959e-09 0.012739406107861697" pbc="T T F"
H        1.40307756       0.81006721      10.00000000        3       1.00000000       0.00000000       0.00000000       0.00000000       0.00000000       0.00000000       0.00000000
H        4.20923268       0.81006721      10.00000000        3       1.00000000       0.00000000       0.00000000       0.00000000       0.00000000       0.00000000       0.00000000
H        0.00000000       3.24026883      10.00000000        3       1.00000000       0.00000000       0.00000000       0.00000000       0.00000000       0.00000000       0.00000000
H        2.80615512       3.24026883      10.00000000        3       1.00000000       0.00000000       0.00000000       0.00000000       0.00000000       0.00000000       0.00000000
H        0.00000000       1.62013441      12.29121606        2       1.00000000       0.00000000       0.00000000       0.00000000       0.00000000       0.00000000       0.00000000
H        2.80615512       1.62013441      12.29121606        2       1.00000000       0.00000000       0.00000000       0.00000000       0.00000000       0.00000000       0.00000000
H        1.40307756       4.05033604      12.29121606        2       1.00000000       0.00000000       0.00000000       0.00000000       0.00000000       0.00000000       0.00000000
H        4.20923268       4.05033604      12.29121606        2       1.00000000       0.00000000       0.00000000       0.00000000       0.00000000       0.00000000       0.00000000
H        0.00000000       0.00000000      14.58243212        1       1.00000000       0.00000000       0.00000000       0.00000000       0.00000000       0.00000000       0.00000000
H        2.80615512       0.00000000      14.58243212        1       1.00000000       0.00000000       0.00000000       0.00000000       0.00000000       0.00000000       0.00000000
H        1.40307756       2.43020162      14.58243212        1       1.00000000       0.00000000       0.00000000       0.00000000       0.00000000       0.00000000       0.00000000
H        4.20923268       2.43020162      14.58243212        1       1.00000000       0.00000000       0.00000000       0.00000000       0.00000000       0.00000000       0.00000000
H       -0.00000064       1.62013531       7.77136718        0       1.00000000       0.00000030       0.00000153      -0.00000040      -0.00000214      -0.00000236       0.00000015
H        1.40612048       4.05032677      16.81107201        0       1.00000000      -0.00000035       0.00000069      -0.00000150      -0.00000110      -0.00000023      -0.00000014
H        2.80615413       1.62013523       7.77136643        0       1.00000000       0.00000057      -0.00000099      -0.00000055       0.00000266      -0.00000379       0.00000167
H        5.61231100       1.62012692      16.81106482        0       1.00000000      -0.00000006      -0.00000237      -0.00000078      -0.00000009       0.00000052       0.00000117
H        4.20923254       4.05033720       7.77136745        0       1.00000000       0.00000015       0.00000101      -0.00000005      -0.00000421       0.00000486      -0.00000231
H        4.20619051       4.05032679      16.81107120        0       1.00000000       0.00000238       0.00000070      -0.00000150       0.00000170      -0.00000101      -0.00000025
H        1.40307698       4.05033716       7.77136796        0       1.00000000      -0.00000095      -0.00000083      -0.00000000       0.00000361      -0.00000009       0.00000335
19
Lattice="5.612310241546866 0.0 0.0 0.0 4.860403243099165 0.0 0.0 0.0 24.582432123328676" Properties=species:S:1:pos:R:3:tags:I:1:masses:R:1:momenta:R:3:forces:R:3 KEmax=24.559391461069055 iter=107203 volume=670.5618179858607 ns_energy=-12.523476320090102 last_walked_iter_clone=106674 energy=-12.52347632009415 stress="0.024004873754779072 -4.954631098211333e-10 -5.388268874898171e-09 -4.954631098211333e-10 0.024132708592571727 -6.338008210139959e-09 -5.388268874898171e-09 -6.338008210139959e-09 0.012739406107861697" pbc="T T F"
H        1.40307756       0.81006721      10.00000000        3       1.00000000       0.00000000       0.00000000       0.00000000       0.00000000       0.00000000       0.00000000
H        4.20923268       0.81006721      10.00000000        3       1.00000000       0.00000000       0.00000000       0.00000000       0.00000000       0.00000000       0.00000000
H        0.00000000       3.24026883      10.00000000        3       1.00000000       0.00000000       0.00000000       0.00000000       0.00000000       0.00000000       0.00000000
H        2.80615512       3.24026883      10.00000000        3       1.00000000       0.00000000       0.00000000       0.00000000       0.00000000       0.00000000       0.00000000
H        0.00000000       1.62013441      12.29121606        2       1.00000000       0.00000000       0.00000000       0.00000000       0.00000000       0.00000000       0.00000000
H        2.80615512       1.62013441      12.29121606        2       1.00000000       0.00000000       0.00000000       0.00000000       0.00000000       0.00000000       0.00000000
H        1.40307756       4.05033604      12.29121606        2       1.00000000       0.00000000       0.00000000       0.00000000       0.00000000       0.00000000       0.00000000
H        4.20923268       4.05033604      12.29121606        2       1.00000000       0.00000000       0.00000000       0.00000000       0.00000000       0.00000000       0.00000000
H        0.00000000       0.00000000      14.58243212        1       1.00000000       0.00000000       0.00000000       0.00000000       0.00000000       0.00000000       0.00000000
H        2.80615512       0.00000000      14.58243212        1       1.00000000       0.00000000       0.00000000       0.00000000       0.00000000       0.00000000       0.00000000
H        1.40307756       2.43020162      14.58243212        1       1.00000000       0.00000000       0.00000000       0.00000000       0.00000000       0.00000000       0.00000000
H        4.20923268       2.43020162      14.58243212        1       1.00000000       0.00000000       0.00000000       0.00000000       0.00000000       0.00000000       0.00000000
H        5.61230917       1.62013348       7.77136684        0       1.00000000       0.00000012      -0.00000052      -0.00000050      -0.00000214      -0.00000236       0.00000015
H        1.40612056       4.05032565      16.81107140        0       1.00000000      -0.00000163       0.00000226      -0.00000156      -0.00000110      -0.00000023      -0.00000014
H        2.80615534       1.62013440       7.77136772        0       1.00000000       0.00000068       0.00000052      -0.00000038       0.00000266      -0.00000379       0.00000167
H        5.61231138       1.62012489      16.81106432        0       1.00000000      -0.00000120      -0.00000003       0.00000018      -0.00000009       0.00000052       0.00000117
H        4.20923300       4.05033556       7.77136677        0       1.00000000      -0.00000053       0.00000065       0.00000136      -0.00000421       0.00000486      -0.00000231
H        4.20619000       4.05032592      16.81107113        0       1.00000000       0.00000071      -0.00000104       0.00000064       0.00000170      -0.00000101      -0.00000025
H        1.40307761       4.05033545       7.77136713        0       1.00000000      -0.00000137       0.00000027      -0.00000087       0.00000361      -0.00000009       0.00000335
19
Lattice="5.612310241546866 0.0 0.0 0.0 4.860403243099165 0.0 0.0 0.0 24.582432123328676" Properties=species:S:1:pos:R:3:tags:I:1:masses:R:1:momenta:R:3:forces:R:3 KEmax=24.559391461069055 iter=107203 volume=670.5618179858607 ns_energy=-12.523476320090412 last_walked_iter_clone=106920 energy=-12.52347632009415 stress="0.024004873754779072 -4.954631098211333e-10 -5.388268874898171e-09 -4.954631098211333e-10 0.024132708592571727 -6.338008210139959e-09 -5.388268874898171e-09 -6.338008210139959e-09 0.012739406107861697" pbc="T T F"
H        1.40307756       0.81006721      10.00000000        3       1.00000000       0.00000000       0.00000000       0.00000000       0.00000000       0.00000000       0.00000000
H        4.20923268       0.81006721      10.00000000        3       1.00000000       0.00000000       0.00000000       0.00000000       0.00000000       0.00000000       0.00000000
H        0.00000000       3.24026883      10.00000000        3       1.00000000       0.00000000       0.00000000       0.00000000       0.00000000       0.00000000       0.00000000
H        2.80615512       3.24026883      10.00000000        3       1.00000000       0.00000000       0.00000000       0.00000000       0.00000000       0.00000000       0.00000000
H        0.00000000       1.62013441      12.29121606        2       1.00000000       0.00000000       0.00000000       0.00000000       0.00000000       0.00000000       0.00000000
H        2.80615512       1.62013441      12.29121606        2       1.00000000       0.00000000       0.00000000       0.00000000       0.00000000       0.00000000       0.00000000
H        1.40307756       4.05033604      12.29121606        2       1.00000000       0.00000000       0.00000000       0.00000000       0.00000000       0.00000000       0.00000000
H        4.20923268       4.05033604      12.29121606        2       1.00000000       0.00000000       0.00000000       0.00000000       0.00000000       0.00000000       0.00000000
H        0.00000000       0.00000000      14.58243212        1       1.00000000       0.00000000       0.00000000       0.00000000       0.00000000       0.00000000       0.00000000
H        2.80615512       0.00000000      14.58243212        1       1.00000000       0.00000000       0.00000000       0.00000000       0.00000000       0.00000000       0.00000000
H        1.40307756       2.43020162      14.58243212        1       1.00000000       0.00000000       0.00000000       0.00000000       0.00000000       0.00000000       0.00000000
H        4.20923268       2.43020162      14.58243212        1       1.00000000       0.00000000       0.00000000       0.00000000       0.00000000       0.00000000       0.00000000
H        5.61231063       1.62013437       7.77136782        0       1.00000000       0.00000144       0.00000067       0.00000020      -0.00000214      -0.00000236       0.00000015
H        1.40611999       4.05032630      16.81107035        0       1.00000000       0.00000051      -0.00000047      -0.00000002      -0.00000110      -0.00000023      -0.00000014
H        2.80615528       1.62013492       7.77136678        0       1.00000000      -0.00000018      -0.00000110      -0.00000145       0.00000266      -0.00000379       0.00000167
H       -0.00000076       1.62012661      16.81106611        0       1.00000000       0.00000141       0.00000130      -0.00000071      -0.00000009       0.00000052       0.00000117
H        4.20923252       4.05033635       7.77136814        0       1.00000000      -0.00000007      -0.00000071      -0.00000042      -0.00000421       0.00000486      -0.00000231
H        4.20618950       4.05032763      16.81107134        0       1.00000000      -0.00000021       0.00000098       0.00000125       0.00000170      -0.00000101      -0.00000025
H        1.40307660       4.05033624       7.77136588        0       1.00000000       0.00000073      -0.00000017      -0.00000077       0.00000361      -0.00000009       0.00000335
19
Lattice="5.612310241546866 0.0 0.0 0.0 4.860403243099165 0.0 0.0 0.0 24.582432123328676" Properties=species:S:1:pos:R:3:tags:I:1:masses:R:1:momenta:R:3:forces:R:3 KEmax=24.559391461069055 iter=107203 volume=670.5618179858607 ns_energy=-12.52347632009001 last_walked_iter_clone=106887 energy=-12.52347632009415 stress="0.024004873754779072 -4.954631098211333e-10 -5.388268874898171e-09 -4.954631098211333e-10 0.024132708592571727 -6.338008210139959e-09 -5.388268874898171e-09 -6.338008210139959e-09 0.012739406107861697" pbc="T T F"
H        1.40307756       0.81006721      10.00000000        3       1.00000000       0.00000000       0.00000000       0.00000000       0.00000000       0.00000000       0.00000000
H        4.20923268       0.81006721      10.00000000        3       1.00000000       0.00000000       0.00000000       0.00000000       0.00000000       0.00000000       0.00000000
H        0.00000000       3.24026883      10.00000000        3       1.00000000       0.00000000       0.00000000       0.00000000       0.00000000       0.00000000       0.00000000
H        2.80615512       3.24026883      10.00000000        3       1.00000000       0.00000000       0.00000000       0.00000000       0.00000000       0.00000000       0.00000000
H        0.00000000       1.62013441      12.29121606        2       1.00000000       0.00000000       0.00000000       0.00000000       0.00000000       0.00000000       0.00000000
H        2.80615512       1.62013441      12.29121606        2       1.00000000       0.00000000       0.00000000       0.00000000       0.00000000       0.00000000       0.00000000
H        1.40307756       4.05033604      12.29121606        2       1.00000000       0.00000000       0.00000000       0.00000000       0.00000000       0.00000000       0.00000000
H        4.20923268       4.05033604      12.29121606        2       1.00000000       0.00000000       0.00000000       0.00000000       0.00000000       0.00000000       0.00000000
H        0.00000000       0.00000000      14.58243212        1       1.00000000       0.00000000       0.00000000       0.00000000       0.00000000       0.00000000       0.00000000
H        2.80615512       0.00000000      14.58243212        1       1.00000000       0.00000000       0.00000000       0.00000000       0.00000000       0.00000000       0.00000000
H        1.40307756       2.43020162      14.58243212        1       1.00000000       0.00000000       0.00000000       0.00000000       0.00000000       0.00000000       0.00000000
H        4.20923268       2.43020162      14.58243212        1       1.00000000       0.00000000       0.00000000       0.00000000       0.00000000       0.00000000       0.00000000
H       -0.00000029       1.62013388       7.77136711        0       1.00000000       0.00000039      -0.00000117       0.00000022      -0.00000214      -0.00000236       0.00000015
H        1.40612085       4.05032501      16.81107107        0       1.00000000      -0.00000039       0.00000045      -0.00000046      -0.00000110      -0.00000023      -0.00000014
H        2.80615511       1.62013418       7.77136649        0       1.00000000      -0.00000133      -0.00000024       0.00000009       0.00000266      -0.00000379       0.00000167
H        0.00000047       1.62012580      16.81106445        0       1.00000000      -0.00000042      -0.00000046      -0.00000130      -0.00000009       0.00000052       0.00000117
H        4.20923218       4.05033598       7.77136810        0       1.00000000       0.00000114       0.00000134       0.00000020      -0.00000421       0.00000486      -0.00000231
H        4.20619061       4.05032635      16.81107124        0       1.00000000      -0.00000108      -0.00000038       0.00000058       0.00000170      -0.00000101      -0.00000025
H        1.40307840       4.05033526       7.77136571        0       1.00000000      -0.00000153      -0.00000166      -0.00000108       0.00000361      -0.00000009       0.00000335
19
Lattice="5.612310241546866 0.0 0.0 0.0 4.860403243099165 0.0 0.0 0.0 24.582432123328676" Properties=species:S:1:pos:R:3:tags:I:1:masses:R:1:momenta:R:3:forces:R:3 KEmax=24.559391461069055 iter=107203 volume=670.5618179858607 ns_energy=-12.523476320090293 last_walked_iter_clone=107191 energy=-12.52347632009415 stress="0.024004873754779072 -4.954631098211333e-10 -5.388268874898171e-09 -4.954631098211333e-10 0.024132708592571727 -6.338008210139959e-09 -5.388268874898171e-09 -6.338008210139959e-09 0.012739406107861697" pbc="T T F"
H        1.40307756       0.81006721      10.00000000        3       1.00000000       0.00000000       0.00000000       0.00000000       0.00000000       0.00000000       0.00000000
H        4.20923268       0.81006721      10.00000000        3       1.00000000       0.00000000       0.00000000       0.00000000       0.00000000       0.00000000       0.00000000
H        0.00000000       3.24026883      10.00000000        3       1.00000000       0.00000000       0.00000000       0.00000000       0.00000000       0.00000000       0.00000000
H        2.80615512       3.24026883      10.00000000        3       1.00000000       0.00000000       0.00000000       0.00000000       0.00000000       0.00000000       0.00000000
H        0.00000000       1.62013441      12.29121606        2       1.00000000       0.00000000       0.00000000       0.00000000       0.00000000       0.00000000       0.00000000
H        2.80615512       1.62013441      12.29121606        2       1.00000000       0.00000000       0.00000000       0.00000000       0.00000000       0.00000000       0.00000000
H        1.40307756       4.05033604      12.29121606        2       1.00000000       0.00000000       0.00000000       0.00000000       0.00000000       0.00000000       0.00000000
H        4.20923268       4.05033604      12.29121606        2       1.00000000       0.00000000       0.00000000       0.00000000       0.00000000       0.00000000       0.00000000