19
Lattice="5.612310241546866 0.0 0.0 0.0 4.860403243099165 0.0 0.0 0.0 24.582432123328676" Properties=species:S:1:pos:R:3:tags:I:1:masses:R:1:momenta:R:3:forces:R:3 KEmax=24.559391461069055 iter=77627 volume=670.5618179858607 ns_energy=-12.523476316029999 last_walked_iter_clone=77528 energy=-12.52347631813229 stress="0.02400436480584643 -2.1187184489303011e-07 1.3138886697302132e-07 -2.1187184489303011e-07 0.02413268044974237 4.0282786423920067e-07 1.3138886697302132e-07 4.0282786423920067e-07 0.012738211110938247" pbc="T T F"
H        1.40307756       0.81006721      10.00000000        3       1.00000000       0.00000000       0.00000000       0.00000000       0.00000000       0.00000000       0.00000000
H        4.20923268       0.81006721      10.00000000        3       1.00000000       0.00000000       0.00000000       0.00000000       0.00000000       0.00000000       0.00000000
H        0.00000000       3.24026883      10.00000000        3       1.00000000       0.00000000       0.00000000       0.00000000       0.00000000       0.00000000       0.00000000
H        2.80615512       3.24026883      10.00000000        3       1.00000000       0.00000000       0.00000000       0.00000000       0.00000000       0.00000000       0.00000000
H        0.00000000       1.62013441      12.29121606        2       1.00000000       0.00000000       0.00000000       0.00000000       0.00000000       0.00000000       0.00000000
H        2.80615512       1.62013441      12.29121606        2       1.00000000       0.00000000       0.00000000       0.00000000       0.00000000       0.00000000       0.00000000
H        1.40307756       4.05033604      12.29121606        2       1.00000000       0.00000000       0.00000000       0.00000000       0.00000000       0.00000000       0.00000000
H        4.20923268       4.05033604      12.29121606        2       1.00000000       0.00000000       0.00000000       0.00000000       0.00000000       0.00000000       0.00000000
H        0.00000000       0.00000000      14.58243212        1       1.00000000       0.00000000       0.00000000       0.00000000       0.00000000       0.00000000       0.00000000
H        2.80615512       0.00000000      14.58243212        1       1.00000000       0.00000000       0.00000000       0.00000000       0.00000000       0.00000000       0.00000000
H        1.40307756       2.43020162      14.58243212        1       1.00000000       0.00000000       0.00000000       0.00000000       0.00000000       0.00000000       0.00000000
H        4.20923268       2.43020162      14.58243212        1       1.00000000       0.00000000       0.00000000       0.00000000       0.00000000       0.00000000       0.00000000
H        0.00001488       1.62012752       7.77137948        0       1.00000000      -0.00000430       0.00000737       0.00001470       0.00001400      -0.00000380      -0.00003948
H        1.40611569       4.05032399      16.81106930        0       1.00000000       0.00001101       0.00000085       0.00001617      -0.00003139       0.00000896      -0.00000228
H        2.80616054       1.62011868       7.77136812        0       1.00000000      -0.00000859      -0.00000274       0.00001011      -0.00003035       0.00001089      -0.00000651
H        5.61229589       1.62013251      16.81105400        0       1.00000000       0.00000766      -0.00000398      -0.00000684      -0.00001495      -0.00000148       0.00003438
H        4.20924338       4.05033765       7.77135074        0       1.00000000      -0.00000607      -0.00000483      -0.00003146      -0.00000147      -0.00000826      -0.00003491
H        4.20619476       4.05031003      16.81107611        0       1.00000000      -0.00000520       0.00000411      -0.00000672       0.00003080      -0.00002642      -0.00000967
H        1.40308033       4.05033742       7.77135323        0       1.00000000       0.00000811      -0.00002570       0.00001269       0.00001678       0.00002675      -0.00002649
19
Lattice="5.612310241546866 0.0 0.0 0.0 4.860403243099165 0.0 0.0 0.0 24.582432123328676" Properties=species:S:1:pos:R:3:tags:I:1:masses:R:1:momenta:R:3:forces:R:3 KEmax=24.559391461069055 iter=77627 volume=670.5618179858607 ns_energy=-12.52347631604153 last_walked_iter_clone=77501 energy=-12.52347631813229 stress="0.02400436480584643 -2.1187184489303011e-07 1.3138886697302132e-07 -2.1187184489303011e-07 0.02413268044974237 4.0282786423920067e-07 1.3138886697302132e-07 4.0282786423920067e-07 0.012738211110938247" pbc="T T F"
H        1.40307756       0.81006721      10.00000000        3       1.00000000       0.00000000       0.00000000       0.00000000       0.00000000       0.00000000       0.00000000
H        4.20923268       0.81006721      10.00000000        3       1.00000000       0.00000000       0.00000000       0.00000000       0.00000000       0.00000000       0.00000000
H        0.00000000       3.24026883      10.00000000        3       1.00000000       0.00000000       0.00000000       0.00000000       0.00000000       0.00000000       0.00000000
H        2.80615512       3.24026883      10.00000000        3       1.00000000       0.00000000       0.00000000       0.00000000       0.00000000       0.00000000       0.00000000
H        0.00000000       1.62013441      12.29121606        2       1.00000000       0.00000000       0.00000000       0.00000000       0.00000000       0.00000000       0.00000000
H        2.80615512       1.62013441      12.29121606        2       1.00000000       0.00000000       0.00000000       0.00000000       0.00000000       0.00000000       0.00000000
H        1.40307756       4.05033604      12.29121606        2       1.00000000       0.00000000       0.00000000       0.00000000       0.00000000       0.00000000       0.00000000
H        4.20923268       4.05033604      12.29121606        2       1.00000000       0.00000000       0.00000000       0.00000000       0.00000000       0.00000000       0.00000000
H        0.00000000       0.00000000      14.58243212        1       1.00000000       0.00000000       0.00000000       0.00000000       0.00000000       0.00000000       0.00000000
H        2.80615512       0.00000000      14.58243212        1       1.00000000       0.00000000       0.00000000       0.00000000       0.00000000       0.00000000       0.00000000
H        1.40307756       2.43020162      14.58243212        1       1.00000000       0.00000000       0.00000000       0.00000000       0.00000000       0.00000000       0.00000000
H        4.20923268       2.43020162      14.58243212        1       1.00000000       0.00000000       0.00000000       0.00000000       0.00000000       0.00000000       0.00000000
H        5.61232911       1.62013700       7.77137054        0       1.00000000       0.00001543      -0.00000988       0.00001640       0.00001400      -0.00000380      -0.00003948
H        1.40612168       4.05031644      16.81107666        0       1.00000000       0.00002644       0.00001703       0.00000898      -0.00003139       0.00000896      -0.00000228
H        2.80617694       1.62013916       7.77134780        0       1.00000000       0.00001943       0.00000575       0.00000308      -0.00003035       0.00001089      -0.00000651
H        5.61231421       1.62012175      16.81105953        0       1.00000000      -0.00000809       0.00001338       0.00002414      -0.00001495      -0.00000148       0.00003438
H        4.20925640       4.05033406       7.77137895        0       1.00000000      -0.00001762       0.00000137       0.00001608      -0.00000147      -0.00000826      -0.00003491
H        4.20618422       4.05032194      16.81107258        0       1.00000000      -0.00000979      -0.00001482      -0.00001151       0.00003080      -0.00002642      -0.00000967
H        1.40309920       4.05032175       7.77136579        0       1.00000000      -0.00000853       0.00001275       0.00000133       0.00001678       0.00002675      -0.00002649
19
Lattice="5.612310241546866 0.0 0.0 0.0 4.860403243099165 0.0 0.0 0.0 24.582432123328676" Properties=species:S:1:pos:R:3:tags:I:1:masses:R:1:momenta:R:3:forces:R:3 KEmax=24.559391461069055 iter=77627 volume=670.5618179858607 ns_energy=-12.523476316039744 last_walked_iter_clone=77531 energy=-12.52347631813229 stress="0.02400436480584643 -2.1187184489303011e-07 1.3138886697302132e-07 -2.1187184489303011e-07 0.02413268044974237 4.0282786423920067e-07 1.3138886697302132e-07 4.0282786423920067e-07 0.012738211110938247" pbc="T T F"
H        1.40307756       0.81006721      10.00000000        3       1.00000000       0.00000000       0.00000000       0.00000000       0.00000000       0.00000000       0.00000000
H        4.20923268       0.81006721      10.00000000        3       1.00000000       0.00000000       0.00000000       0.00000000       0.00000000       0.00000000       0.00000000
H        0.00000000       3.24026883      10.00000000        3       1.00000000       0.00000000       0.00000000       0.00000000       0.00000000       0.00000000       0.00000000
H        2.80615512       3.24026883      10.00000000        3       1.00000000       0.00000000       0.00000000       0.00000000       0.00000000       0.00000000       0.00000000
H        0.00000000       1.62013441      12.29121606        2       1.00000000       0.00000000       0.00000000       0.00000000       0.00000000       0.00000000       0.00000000
H        2.80615512       1.62013441      12.29121606        2       1.00000000       0.00000000       0.00000000       0.00000000       0.00000000       0.00000000       0.00000000
H        1.40307756       4.05033604      12.29121606        2       1.00000000       0.00000000       0.00000000       0.00000000       0.00000000       0.00000000       0.00000000
H        4.20923268       4.05033604      12.29121606        2       1.00000000       0.00000000       0.00000000       0.00000000       0.00000000       0.00000000       0.00000000
H        0.00000000       0.00000000      14.58243212        1       1.00000000       0.00000000       0.00000000       0.00000000       0.00000000       0.00000000       0.00000000
H        2.80615512       0.00000000      14.58243212        1       1.00000000       0.00000000       0.00000000       0.00000000       0.00000000       0.00000000       0.00000000
H        1.40307756       2.43020162      14.58243212        1       1.00000000       0.00000000       0.00000000       0.00000000       0.00000000       0.00000000       0.00000000
H        4.20923268       2.43020162      14.58243212        1       1.00000000       0.00000000       0.00000000       0.00000000       0.00000000       0.00000000       0.00000000
H        0.00000221       1.62012324       7.77137038        0       1.00000000      -0.00000516      -0.00001008       0.00000128       0.00001400      -0.00000380      -0.00003948
H        1.40615372       4.05034095      16.81107674        0       1.00000000      -0.00001039       0.00000255      -0.00000003      -0.00003139       0.00000896      -0.00000228
H        2.80615020       1.62012429       7.77135966        0       1.00000000      -0.00003284       0.00000316      -0.00001100      -0.00003035       0.00001089      -0.00000651
H        0.00000575       1.62013253      16.81106876        0       1.00000000      -0.00000752      -0.00000155      -0.00000031      -0.00001495      -0.00000148       0.00003438
H        4.20923251       4.05033166       7.77135586        0       1.00000000       0.00000056       0.00001205      -0.00001535      -0.00000147      -0.00000826      -0.00003491
H        4.20622555       4.05033588      16.81106746        0       1.00000000      -0.00000452       0.00001401       0.00002142       0.00003080      -0.00002642      -0.00000967
H        1.40306493       4.05033050       7.77137299        0       1.00000000      -0.00002147       0.00000275      -0.00003143       0.00001678       0.00002675      -0.00002649
19
Lattice="5.612310241546866 0.0 0.0 0.0 4.860403243099165 0.0 0.0 0.0 24.582432123328676" Properties=species:S:1:pos:R:3:tags:I:1:masses:R:1:momenta:R:3:forces:R:3 KEmax=24.559391461069055 iter=77627 volume=670.5618179858607 ns_energy=-12.523476316050486 last_walked_iter_clone=77594 energy=-12.52347631813229 stress="0.02400436480584643 -2.1187184489303011e-07 1.3138886697302132e-07 -2.1187184489303011e-07 0.02413268044974237 4.0282786423920067e-07 1.3138886697302132e-07 4.0282786423920067e-07 0.012738211110938247" pbc="T T F"
H        1.40307756       0.81006721      10.00000000        3       1.00000000       0.00000000       0.00000000       0.00000000       0.00000000       0.00000000       0.00000000
H        4.20923268       0.81006721      10.00000000        3       1.00000000       0.00000000       0.00000000       0.00000000       0.00000000       0.00000000       0.00000000
H        0.00000000       3.24026883      10.00000000        3       1.00000000       0.00000000       0.00000000       0.00000000       0.00000000       0.00000000       0.00000000
H        2.80615512       3.24026883      10.00000000        3       1.00000000       0.00000000       0.00000000       0.00000000       0.00000000       0.00000000       0.00000000
H        0.00000000       1.62013441      12.29121606        2       1.00000000       0.00000000       0.00000000       0.00000000       0.00000000       0.00000000       0.00000000
H        2.80615512       1.62013441      12.29121606        2       1.00000000       0.00000000       0.00000000       0.00000000       0.00000000       0.00000000       0.00000000
H        1.40307756       4.05033604      12.29121606        2       1.00000000       0.00000000       0.00000000       0.00000000       0.00000000       0.00000000       0.00000000
H        4.20923268       4.05033604      12.29121606        2       1.00000000       0.00000000       0.00000000       0.00000000       0.00000000       0.00000000       0.00000000
H        0.00000000       0.00000000      14.58243212        1       1.00000000       0.00000000       0.00000000       0.00000000       0.00000000       0.00000000       0.00000000
H        2.80615512       0.00000000      14.58243212        1       1.00000000       0.00000000       0.00000000       0.00000000       0.00000000       0.00000000       0.00000000
H        1.40307756       2.43020162      14.58243212        1       1.00000000       0.00000000       0.00000000       0.00000000       0.00000000       0.00000000       0.00000000
H        4.20923268       2.43020162      14.58243212        1       1.00000000       0.00000000       0.00000000       0.00000000       0.00000000       0.00000000       0.00000000
H        5.61229357       1.62012292       7.77137248        0       1.00000000       0.00000487       0.00000636      -0.00000268       0.00001400      -0.00000380      -0.00003948
H        1.40610663       4.05032541      16.81106869        0       1.00000000      -0.00001841       0.00000419      -0.00001591      -0.00003139       0.00000896      -0.00000228
H        2.80613622       1.62013298       7.77135851        0       1.00000000       0.00000259      -0.00000206       0.00001846      -0.00003035       0.00001089      -0.00000651
H        5.61231536       1.62014027      16.81105729        0       1.00000000       0.00000452       0.00002578       0.00003292      -0.00001495      -0.00000148       0.00003438
H        4.20921885       4.05032890       7.77137105        0       1.00000000       0.00000753       0.00000759       0.00000125      -0.00000147      -0.00000826      -0.00003491
H        4.20617938       4.05034488      16.81107251        0       1.00000000      -0.00003024       0.00000462       0.00001298       0.00003080      -0.00002642      -0.00000967
H        1.40306887       4.05032661       7.77136388        0       1.00000000       0.00002495      -0.00000026       0.00002997       0.00001678       0.00002675      -0.00002649
19
Lattice="5.612310241546866 0.0 0.0 0.0 4.860403243099165 0.0 0.0 0.0 24.582432123328676" Properties=species:S:1:pos:R:3:tags:I:1:masses:R:1:momenta:R:3:forces:R:3 KEmax=24.559391461069055 iter=77627 volume=670.5618179858607 ns_energy=-12.523476316069813 last_walked_iter_clone=77552 energy=-12.52347631813229 stress="0.02400436480584643 -2.1187184489303011e-07 1.3138886697302132e-07 -2.1187184489303011e-07 0.02413268044974237 4.0282786423920067e-07 1.3138886697302132e-07 4.0282786423920067e-07 0.012738211110938247" pbc="T T F"
H        1.40307756       0.81006721      10.00000000        3       1.00000000       0.00000000       0.00000000       0.00000000       0.00000000       0.00000000       0.00000000
H        4.20923268       0.81006721      10.00000000        3       1.00000000       0.00000000       0.00000000       0.00000000       0.00000000       0.00000000       0.00000000
H        0.00000000       3.24026883      10.00000000        3       1.00000000       0.00000000       0.00000000       0.00000000       0.00000000       0.00000000       0.00000000
H        2.80615512       3.24026883      10.00000000        3       1.00000000       0.00000000       0.00000000       0.00000000       0.00000000       0.00000000       0.00000000
H        0.00000000       1.62013441      12.29121606        2       1.00000000       0.00000000       0.00000000       0.00000000       0.00000000       0.00000000       0.00000000
H        2.80615512       1.62013441      12.29121606        2       1.00000000       0.00000000       0.00000000       0.00000000       0.00000000       0.00000000       0.00000000
H        1.40307756       4.05033604      12.29121606        2       1.00000000       0.00000000       0.00000000       0.00000000       0.00000000       0.00000000       0.00000000
H        4.20923268       4.05033604      12.29121606        2       1.00000000       0.00000000       0.00000000       0.00000000       0.00000000       0.00000000       0.00000000
H        0.00000000       0.00000000      14.58243212        1       1.00000000       0.00000000       0.00000000       0.00000000       0.00000000       0.00000000       0.00000000
H        2.80615512       0.00000000      14.58243212        1       1.00000000       0.00000000       0.00000000       0.00000000       0.00000000       0.00000000       0.00000000
H        1.40307756       2.43020162      14.58243212        1       1.00000000       0.00000000       0.00000000       0.00000000       0.00000000       0.00000000       0.00000000
H        4.20923268       2.43020162      14.58243212        1       1.00000000       0.00000000       0.00000000       0.00000000       0.00000000       0.00000000       0.00000000
H       -0.00000461       1.62012756       7.77136078        0       1.00000000      -0.00001082       0.00002192      -0.00001889       0.00001400      -0.00000380      -0.00003948
H        1.40611098       4.05035097      16.81107592        0       1.00000000      -0.00001485      -0.00000531      -0.00001788      -0.00003139       0.00000896      -0.00000228
H        2.80614953       1.62013715       7.77137945        0       1.00000000      -0.00004968       0.00000905       0.00000232      -0.00003035       0.00001089      -0.00000651
H        5.61230362       1.62013773      16.81106470        0       1.00000000       0.00001049       0.00001282      -0.00000234      -0.00001495      -0.00000148       0.00003438
H        4.20922391       4.05033524       7.77135718        0       1.00000000       0.00000997      -0.00000106       0.00001344      -0.00000147      -0.00000826      -0.00003491
H        4.20617281       4.05034374      16.81107937        0       1.00000000       0.00000176       0.00000367       0.00000982       0.00003080      -0.00002642      -0.00000967
H        1.40306772       4.05034568       7.77136997        0       1.00000000       0.00001529      -0.00000854      -0.00000074       0.00001678       0.00002675      -0.00002649
19
Lattice="5.612310241546866 0.0 0.0 0.0 4.860403243099165 0.0 0.0 0.0 24.582432123328676" Properties=species:S:1:pos:R:3:tags:I:1:masses:R:1:momenta:R:3:forces:R:3 KEmax=24.559391461069055 iter=77627 volume=670.5618179858607 ns_energy=-12.523476315994685 last_walked_iter_clone=77464 energy=-12.52347631813229 stress="0.02400436480584643 -2.1187184489303011e-07 1.3138886697302132e-07 -2.1187184489303011e-07 0.02413268044974237 4.0282786423920067e-07 1.3138886697302132e-07 4.0282786423920067e-07 0.012738211110938247" pbc="T T F"
H        1.40307756       0.81006721      10.00000000        3       1.00000000       0.00000000       0.00000000       0.00000000       0.00000000       0.00000000       0.00000000
H        4.20923268       0.81006721      10.00000000        3       1.00000000       0.00000000       0.00000000       0.00000000       0.00000000       0.00000000       0.00000000
H        0.00000000       3.24026883      10.00000000        3       1.00000000       0.00000000       0.00000000       0.00000000       0.00000000       0.00000000       0.00000000
H        2.80615512       3.24026883      10.00000000        3       1.00000000       0.00000000       0.00000000       0.00000000       0.00000000       0.00000000       0.00000000
H        0.00000000       1.62013441      12.29121606        2       1.00000000       0.00000000       0.00000000       0.00000000       0.00000000       0.00000000       0.00000000
H        2.80615512       1.62013441      12.29121606        2       1.00000000       0.00000000       0.00000000       0.00000000       0.00000000       0.00000000       0.00000000
H        1.40307756       4.05033604      12.29121606        2       1.00000000       0.00000000       0.00000000       0.00000000       0.00000000       0.00000000       0.00000000
H        4.20923268       4.05033604      12.29121606        2       1.00000000       0.00000000       0.00000000       0.00000000       0.00000000       0.00000000       0.00000000
H        0.00000000       0.00000000      14.58243212        1       1.00000000       0.00000000       0.00000000       0.00000000       0.00000000       0.00000000       0.00000000
H        2.80615512       0.00000000      14.58243212        1       1.00000000       0.00000000       0.00000000       0.00000000       0.00000000       0.00000000       0.00000000
H        1.40307756       2.43020162      14.58243212        1       1.00000000       0.00000000       0.00000000       0.00000000       0.00000000       0.00000000       0.00000000
H        4.20923268       2.43020162      14.58243212        1       1.00000000       0.00000000       0.00000000       0.00000000       0.00000000       0.00000000       0.00000000
H        5.61230690       1.62012129       7.77134857        0       1.00000000      -0.00000615       0.00002319      -0.00001250       0.00001400      -0.00000380      -0.00003948
H        1.40611744       4.05032267      16.81108643        0       1.00000000      -0.00001555       0.00002036      -0.00000104      -0.00003139       0.00000896      -0.00000228
H        2.80615727       1.62012106       7.77137172        0       1.00000000      -0.00001167       0.00000756       0.00000194      -0.00003035       0.00001089      -0.00000651
H       -0.00003040       1.62012467      16.81107517        0       1.00000000      -0.00000279      -0.00001021       0.00001797      -0.00001495      -0.00000148       0.00003438
H        4.20922538       4.05032276       7.77136127        0       1.00000000       0.00000214      -0.00002192       0.00000663      -0.00000147      -0.00000826      -0.00003491
H        4.20619143       4.05032659      16.81107664        0       1.00000000       0.00001108      -0.00001601       0.00002022       0.00003080      -0.00002642      -0.00000967
H        1.40306562       4.05033004       7.77137424        0       1.00000000       0.00001964      -0.00001387       0.00000567       0.00001678       0.00002675      -0.00002649
19
Lattice="5.612310241546866 0.0 0.0 0.0 4.860403243099165 0.0 0.0 0.0 24.582432123328676" Properties=species:S:1:pos:R:3:tags:I:1:masses:R:1:momenta:R:3:forces:R:3 KEmax=24.559391461069055 iter=77627 volume=670.5618179858607 ns_energy=-12.52347631602944 last_walked_iter_clone=77554 energy=-12.52347631813229 stress="0.02400436480584643 -2.1187184489303011e-07 1.3138886697302132e-07 -2.1187184489303011e-07 0.02413268044974237 4.0282786423920067e-07 1.3138886697302132e-07 4.0282786423920067e-07 0.012738211110938247" pbc="T T F"
H        1.40307756       0.81006721      10.00000000        3       1.00000000       0.00000000       0.00000000       0.00000000       0.00000000       0.00000000       0.00000000
H        4.20923268       0.81006721      10.00000000        3       1.00000000       0.00000000       0.00000000       0.00000000       0.00000000       0.00000000       0.00000000
H        0.00000000       3.24026883      10.00000000        3       1.00000000       0.00000000       0.00000000       0.00000000       0.00000000       0.00000000       0.00000000
H        2.80615512       3.24026883      10.00000000        3       1.00000000       0.00000000       0.00000000       0.00000000       0.00000000       0.00000000       0.00000000
H        0.00000000       1.62013441      12.29121606        2       1.00000000       0.00000000       0.00000000       0.00000000       0.00000000       0.00000000       0.00000000
H        2.80615512       1.62013441      12.29121606        2       1.00000000       0.00000000       0.00000000       0.00000000       0.00000000       0.00000000       0.00000000
H        1.40307756       4.05033604      12.29121606        2       1.00000000       0.00000000       0.00000000       0.00000000       0.00000000       0.00000000       0.00000000
H        4.20923268       4.05033604      12.29121606        2       1.00000000       0.00000000       0.00000000       0.00000000       0.00000000       0.00000000       0.00000000
H        0.00000000       0.00000000      14.58243212        1       1.00000000       0.00000000       0.00000000       0.00000000       0.00000000       0.00000000       0.00000000
H        2.80615512       0.00000000      14.58243212        1       1.00000000       0.00000000       0.00000000       0.00000000       0.00000000       0.00000000       0.00000000
H        1.40307756       2.43020162      14.58243212        1       1.00000000       0.00000000       0.00000000       0.00000000       0.00000000       0.00000000       0.00000000
H        4.20923268       2.43020162      14.58243212        1       1.00000000       0.00000000       0.00000000       0.00000000       0.00000000       0.00000000       0.00000000
H        0.00000460       1.62015318       7.77138678        0       1.00000000       0.00001706       0.00001395       0.00001040       0.00001400      -0.00000380      -0.00003948
H        1.40611628       4.05033955      16.81107512        0       1.00000000       0.00000042       0.00000001       0.00000195      -0.00003139       0.00000896      -0.00000228
H        2.80615430       1.62013477       7.77136791        0       1.00000000       0.00001576       0.00001765      -0.00001155      -0.00003035       0.00001089      -0.00000651
H        5.61231189       1.62011669      16.81106736        0       1.00000000       0.00000055       0.00002002       0.00001124      -0.00001495      -0.00000148       0.00003438
H        4.20922304       4.05036025       7.77137292        0       1.00000000      -0.00000614       0.00000267      -0.00002508      -0.00000147      -0.00000826      -0.00003491
H        4.20617817       4.05033411      16.81107806        0       1.00000000      -0.00000699       0.00001034       0.00001643       0.00003080      -0.00002642      -0.00000967
H        1.40307554       4.05034446       7.77136819        0       1.00000000      -0.00001640      -0.00001237       0.00000141       0.00001678       0.00002675      -0.00002649
19
Lattice="5.612310241546866 0.0 0.0 0.0 4.860403243099165 0.0 0.0 0.0 24.582432123328676" Properties=species:S:1:pos:R:3:tags:I:1:masses:R:1:momenta:R:3:forces:R:3 KEmax=24.559391461069055 iter=77627 volume=670.5618179858607 ns_energy=-12.523476316151651 last_walked_iter_clone=77586 energy=-12.52347631813229 stress="0.02400436480584643 -2.1187184489303011e-07 1.3138886697302132e-07 -2.1187184489303011e-07 0.02413268044974237 4.0282786423920067e-07 1.3138886697302132e-07 4.0282786423920067e-07 0.012738211110938247" pbc="T T F"
H        1.40307756       0.81006721      10.00000000        3       1.00000000       0.00000000       0.00000000       0.00000000       0.00000000       0.00000000       0.00000000
H        4.20923268       0.81006721      10.00000000        3       1.00000000       0.00000000       0.00000000       0.00000000       0.00000000       0.00000000       0.00000000
H        0.00000000       3.24026883      10.00000000        3       1.00000000       0.00000000       0.00000000       0.00000000       0.00000000       0.00000000       0.00000000
H        2.80615512       3.24026883      10.00000000        3       1.00000000       0.00000000       0.00000000       0.00000000       0.00000000       0.00000000       0.00000000
H        0.00000000       1.62013441      12.29121606        2       1.00000000       0.00000000       0.00000000       0.00000000       0.00000000       0.00000000       0.00000000
H        2.80615512       1.62013441      12.29121606        2       1.00000000       0.00000000       0.00000000       0.00000000       0.00000000       0.00000000       0.00000000
H        1.40307756       4.05033604      12.29121606        2       1.00000000       0.00000000       0.00000000       0.00000000       0.00000000       0.00000000       0.00000000
H        4.20923268       4.05033604      12.29121606        2       1.00000000       0.00000000       0.00000000       0.00000000       0.00000000       0.00000000       0.00000000