22
Lattice="5.612310241546866 0.0 0.0 0.0 4.860403243099165 0.0 0.0 0.0 44.58243212332868" Properties=species:S:1:pos:R:3:tags:I:1:masses:R:1:momenta:R:3:forces:R:3 KEmax=28.4371901128168 iter=50119 volume=1216.1236359717223 set_wall=T ns_energy=-14.559681072951983 last_walked_iter_clone=49901 energy=-14.633226483312768 stress="0.01985042502048307 -0.0003716416873182673 -0.0016872098878449133 -0.0003716416873182673 0.021707166787398702 -0.00034623900321803253 -0.0016872098878449133 -0.00034623900321803253 0.011569949970453056" pbc="T T F"
H        1.40307756       0.81006721      20.00000000        3       1.00000000       0.00000000       0.00000000       0.00000000       0.00000000       0.00000000       0.00000000
H        4.20923268       0.81006721      20.00000000        3       1.00000000       0.00000000       0.00000000       0.00000000       0.00000000       0.00000000       0.00000000
H        0.00000000       3.24026883      20.00000000        3       1.00000000       0.00000000       0.00000000       0.00000000       0.00000000       0.00000000       0.00000000
H        2.80615512       3.24026883      20.00000000        3       1.00000000       0.00000000       0.00000000       0.00000000       0.00000000       0.00000000       0.00000000
H        0.00000000       1.62013441      22.29121606        2       1.00000000       0.00000000       0.00000000       0.00000000       0.00000000       0.00000000       0.00000000
H        2.80615512       1.62013441      22.29121606        2       1.00000000       0.00000000       0.00000000       0.00000000       0.00000000       0.00000000       0.00000000
H        1.40307756       4.05033604      22.29121606        2       1.00000000       0.00000000       0.00000000       0.00000000       0.00000000       0.00000000       0.00000000
H        4.20923268       4.05033604      22.29121606        2       1.00000000       0.00000000       0.00000000       0.00000000       0.00000000       0.00000000       0.00000000
H        0.00000000       0.00000000      24.58243212        1       1.00000000       0.00000000       0.00000000       0.00000000       0.00000000       0.00000000       0.00000000
H        2.80615512       0.00000000      24.58243212        1       1.00000000       0.00000000       0.00000000       0.00000000       0.00000000       0.00000000       0.00000000
H        1.40307756       2.43020162      24.58243212        1       1.00000000       0.00000000       0.00000000       0.00000000       0.00000000       0.00000000       0.00000000
H        4.20923268       2.43020162      24.58243212        1       1.00000000       0.00000000       0.00000000       0.00000000       0.00000000       0.00000000       0.00000000
H        5.61474995       1.66835278      26.83462308        0       1.00000000      -0.01291191       0.00810245       0.05109844       0.21856839       0.20729752      -0.14352824
H        1.45244947       0.85849754      28.95239337        0       1.00000000      -0.18631883      -0.11320920       0.12858680       0.26622339       0.02341699       0.01495664
H        4.25998655       4.09869587      26.87904084        0       1.00000000       0.11234355       0.08260968       0.13454498      -0.39608487      -0.01869544      -0.09994029
H        2.72465916       0.08127528      31.23124549        0       1.00000000       0.20504457      -0.09893401       0.03828856       0.24701516       0.27145932      -0.08716424
H        2.76139059       3.23248316      29.07733081        0       1.00000000      -0.16434870      -0.13008243       0.06106714       0.20046516      -0.01471968       0.20224078
H        4.10129277       2.44100355      31.23463655        0       1.00000000      -0.04934466      -0.02579725      -0.05085518       0.02674073      -0.25239358      -0.10546823
H        2.89473974       1.74235541      26.81866917        0       1.00000000       0.05462994       0.07699218       0.10992879      -0.15726800       0.07637608       0.23703571
H        1.43933047       4.01946160      26.76950077        0       1.00000000       0.04459780       0.02292047      -0.09804004      -0.22438925      -0.25307417      -0.23332411
H        4.29238517       0.85602139      29.08045995        0       1.00000000       0.09277989      -0.03377932      -0.05833078       0.04543133       0.10616164      -0.11699365
H        0.01260052       3.27889140      29.06797290        0       1.00000000      -0.04395563      -0.04458990      -0.05194073       0.00737135       0.04220956       0.06370277
22
Lattice="5.612310241546866 0.0 0.0 0.0 4.860403243099165 0.0 0.0 0.0 44.58243212332868" Properties=species:S:1:pos:R:3:tags:I:1:masses:R:1:momenta:R:3:forces:R:3 KEmax=28.4371901128168 iter=50119 volume=1216.1236359717223 set_wall=T ns_energy=-14.558969323655024 last_walked_iter_clone=49859 energy=-14.633226483312768 stress="0.01985042502048307 -0.0003716416873182673 -0.0016872098878449133 -0.0003716416873182673 0.021707166787398702 -0.00034623900321803253 -0.0016872098878449133 -0.00034623900321803253 0.011569949970453056" pbc="T T F"
H        1.40307756       0.81006721      20.00000000        3       1.00000000       0.00000000       0.00000000       0.00000000       0.00000000       0.00000000       0.00000000
H        4.20923268       0.81006721      20.00000000        3       1.00000000       0.00000000       0.00000000       0.00000000       0.00000000       0.00000000       0.00000000
H        0.00000000       3.24026883      20.00000000        3       1.00000000       0.00000000       0.00000000       0.00000000       0.00000000       0.00000000       0.00000000
H        2.80615512       3.24026883      20.00000000        3       1.00000000       0.00000000       0.00000000       0.00000000       0.00000000       0.00000000       0.00000000
H        0.00000000       1.62013441      22.29121606        2       1.00000000       0.00000000       0.00000000       0.00000000       0.00000000       0.00000000       0.00000000
H        2.80615512       1.62013441      22.29121606        2       1.00000000       0.00000000       0.00000000       0.00000000       0.00000000       0.00000000       0.00000000
H        1.40307756       4.05033604      22.29121606        2       1.00000000       0.00000000       0.00000000       0.00000000       0.00000000       0.00000000       0.00000000
H        4.20923268       4.05033604      22.29121606        2       1.00000000       0.00000000       0.00000000       0.00000000       0.00000000       0.00000000       0.00000000
H        0.00000000       0.00000000      24.58243212        1       1.00000000       0.00000000       0.00000000       0.00000000       0.00000000       0.00000000       0.00000000
H        2.80615512       0.00000000      24.58243212        1       1.00000000       0.00000000       0.00000000       0.00000000       0.00000000       0.00000000       0.00000000
H        1.40307756       2.43020162      24.58243212        1       1.00000000       0.00000000       0.00000000       0.00000000       0.00000000       0.00000000       0.00000000
H        4.20923268       2.43020162      24.58243212        1       1.00000000       0.00000000       0.00000000       0.00000000       0.00000000       0.00000000       0.00000000
H        2.83942574       0.20512227      29.04923019        0       1.00000000       0.04617305      -0.04806766       0.08407918       0.21856839       0.20729752      -0.14352824
H        1.35836601       2.59047494      29.01700981        0       1.00000000       0.16512803      -0.05252327      -0.02858441       0.26622339       0.02341699       0.01495664
H        4.32124101       2.55354583      29.07627160        0       1.00000000      -0.00981266      -0.06037484      -0.05694661      -0.39608487      -0.01869544      -0.09994029
H        1.45976939       4.19989447      26.82639929        0       1.00000000      -0.00076636       0.13010215      -0.15705314       0.24701516       0.27145932      -0.08716424
H        5.65853905       1.68451156      26.73415959        0       1.00000000      -0.04646956       0.05711992       0.03967214       0.20046516      -0.01471968       0.20224078
H        2.90222027       3.24492350      31.34160914        0       1.00000000      -0.02769234      -0.03447887       0.02173600       0.02674073      -0.25239358      -0.10546823
H        5.62067095       0.17216581      29.05877137        0       1.00000000      -0.00379788      -0.09730148      -0.01541815      -0.15726800       0.07637608       0.23703571
H        2.91613969       1.74889911      26.88627293        0       1.00000000       0.03336385      -0.00651545      -0.05716947      -0.22438925      -0.25307417      -0.23332411
H        4.20726404       4.17325732      26.75854036        0       1.00000000       0.03527044      -0.06117734      -0.05807018       0.04543133       0.10616164      -0.11699365
H        0.12777891       3.47267057      31.26434867        0       1.00000000      -0.08963829       0.01468444      -0.21047652       0.00737135       0.04220956       0.06370277
22
Lattice="5.612310241546866 0.0 0.0 0.0 4.860403243099165 0.0 0.0 0.0 44.58243212332868" Properties=species:S:1:pos:R:3:tags:I:1:masses:R:1:momenta:R:3:forces:R:3 KEmax=28.4371901128168 iter=50119 volume=1216.1236359717223 set_wall=T ns_energy=-14.55850253967958 last_walked_iter_clone=49969 energy=-14.633226483312768 stress="0.01985042502048307 -0.0003716416873182673 -0.0016872098878449133 -0.0003716416873182673 0.021707166787398702 -0.00034623900321803253 -0.0016872098878449133 -0.00034623900321803253 0.011569949970453056" pbc="T T F"
H        1.40307756       0.81006721      20.00000000        3       1.00000000       0.00000000       0.00000000       0.00000000       0.00000000       0.00000000       0.00000000
H        4.20923268       0.81006721      20.00000000        3       1.00000000       0.00000000       0.00000000       0.00000000       0.00000000       0.00000000       0.00000000
H        0.00000000       3.24026883      20.00000000        3       1.00000000       0.00000000       0.00000000       0.00000000       0.00000000       0.00000000       0.00000000
H        2.80615512       3.24026883      20.00000000        3       1.00000000       0.00000000       0.00000000       0.00000000       0.00000000       0.00000000       0.00000000
H        0.00000000       1.62013441      22.29121606        2       1.00000000       0.00000000       0.00000000       0.00000000       0.00000000       0.00000000       0.00000000
H        2.80615512       1.62013441      22.29121606        2       1.00000000       0.00000000       0.00000000       0.00000000       0.00000000       0.00000000       0.00000000
H        1.40307756       4.05033604      22.29121606        2       1.00000000       0.00000000       0.00000000       0.00000000       0.00000000       0.00000000       0.00000000
H        4.20923268       4.05033604      22.29121606        2       1.00000000       0.00000000       0.00000000       0.00000000       0.00000000       0.00000000       0.00000000
H        0.00000000       0.00000000      24.58243212        1       1.00000000       0.00000000       0.00000000       0.00000000       0.00000000       0.00000000       0.00000000
H        2.80615512       0.00000000      24.58243212        1       1.00000000       0.00000000       0.00000000       0.00000000       0.00000000       0.00000000       0.00000000
H        1.40307756       2.43020162      24.58243212        1       1.00000000       0.00000000       0.00000000       0.00000000       0.00000000       0.00000000       0.00000000
H        4.20923268       2.43020162      24.58243212        1       1.00000000       0.00000000       0.00000000       0.00000000       0.00000000       0.00000000       0.00000000
H        1.44462442       0.81915368      26.83106144        0       1.00000000      -0.12720036      -0.04306070       0.00931406       0.21856839       0.20729752      -0.14352824
H        0.07935133       1.64718188      28.97979924        0       1.00000000       0.06084046       0.05546483      -0.04232928       0.26622339       0.02341699       0.01495664
H        0.07112209       3.24123493      26.84402362        0       1.00000000      -0.11754727       0.18100227       0.00819432      -0.39608487      -0.01869544      -0.09994029
H        3.10351964       5.00435865      31.26020669        0       1.00000000       0.02180673       0.08638205       0.14344775       0.24701516       0.27145932      -0.08716424
H        1.38838479       4.18982725      29.08670582        0       1.00000000       0.02781833      -0.06061172      -0.00516305       0.20046516      -0.01471968       0.20224078
H        4.55266514       2.50070650      31.24928006        0       1.00000000       0.06479643       0.12671299      -0.01940251       0.02674073      -0.25239358      -0.10546823
H        4.31284652       0.81107698      26.76739201        0       1.00000000      -0.00454682       0.02577900      -0.02419125      -0.15726800       0.07637608       0.23703571
H        2.83227093       3.19570331      26.82548146        0       1.00000000       0.05240566      -0.02141502      -0.02797998      -0.22438925      -0.25307417      -0.23332411
H        2.83843038       1.69631009      29.13005714        0       1.00000000      -0.17550250      -0.12842792      -0.10015382       0.04543133       0.10616164      -0.11699365
H        4.32990624       4.08302843      28.96874611        0       1.00000000       0.09418120       0.02971095       0.01612550       0.00737135       0.04220956       0.06370277
22
Lattice="5.612310241546866 0.0 0.0 0.0 4.860403243099165 0.0 0.0 0.0 44.58243212332868" Properties=species:S:1:pos:R:3:tags:I:1:masses:R:1:momenta:R:3:forces:R:3 KEmax=28.4371901128168 iter=50119 volume=1216.1236359717223 set_wall=T ns_energy=-14.556709178278098 last_walked_iter_clone=50037 energy=-14.633226483312768 stress="0.01985042502048307 -0.0003716416873182673 -0.0016872098878449133 -0.0003716416873182673 0.021707166787398702 -0.00034623900321803253 -0.0016872098878449133 -0.00034623900321803253 0.011569949970453056" pbc="T T F"
H        1.40307756       0.81006721      20.00000000        3       1.00000000       0.00000000       0.00000000       0.00000000       0.00000000       0.00000000       0.00000000
H        4.20923268       0.81006721      20.00000000        3       1.00000000       0.00000000       0.00000000       0.00000000       0.00000000       0.00000000       0.00000000
H        0.00000000       3.24026883      20.00000000        3       1.00000000       0.00000000       0.00000000       0.00000000       0.00000000       0.00000000       0.00000000
H        2.80615512       3.24026883      20.00000000        3       1.00000000       0.00000000       0.00000000       0.00000000       0.00000000       0.00000000       0.00000000
H        0.00000000       1.62013441      22.29121606        2       1.00000000       0.00000000       0.00000000       0.00000000       0.00000000       0.00000000       0.00000000
H        2.80615512       1.62013441      22.29121606        2       1.00000000       0.00000000       0.00000000       0.00000000       0.00000000       0.00000000       0.00000000
H        1.40307756       4.05033604      22.29121606        2       1.00000000       0.00000000       0.00000000       0.00000000       0.00000000       0.00000000       0.00000000
H        4.20923268       4.05033604      22.29121606        2       1.00000000       0.00000000       0.00000000       0.00000000       0.00000000       0.00000000       0.00000000
H        0.00000000       0.00000000      24.58243212        1       1.00000000       0.00000000       0.00000000       0.00000000       0.00000000       0.00000000       0.00000000
H        2.80615512       0.00000000      24.58243212        1       1.00000000       0.00000000       0.00000000       0.00000000       0.00000000       0.00000000       0.00000000
H        1.40307756       2.43020162      24.58243212        1       1.00000000       0.00000000       0.00000000       0.00000000       0.00000000       0.00000000       0.00000000
H        4.20923268       2.43020162      24.58243212        1       1.00000000       0.00000000       0.00000000       0.00000000       0.00000000       0.00000000       0.00000000
H        4.27023047       4.09524364      29.04901858        0       1.00000000      -0.04118733       0.05278260       0.01753027       0.21856839       0.20729752      -0.14352824
H        2.80646624       1.61937863      29.00134195        0       1.00000000      -0.02336799       0.05591137       0.10167919       0.26622339       0.02341699       0.01495664
H        0.15428385       1.67058701      28.95483299        0       1.00000000       0.12657683      -0.08001546      -0.00408810      -0.39608487      -0.01869544      -0.09994029
H        1.52486010       0.83346171      26.77512248        0       1.00000000      -0.13399977      -0.09993072       0.15586743       0.24701516       0.27145932      -0.08716424
H        0.06228794       3.24251811      26.77125333        0       1.00000000       0.10682318       0.06857930       0.04912239       0.20046516      -0.01471968       0.20224078
H        0.16030107       0.07168422      31.20141701        0       1.00000000      -0.06097803       0.08251567      -0.03070345       0.02674073      -0.25239358      -0.10546823
H        1.47674324       4.11995987      28.91296519        0       1.00000000       0.12358576      -0.06042330      -0.13810121      -0.15726800       0.07637608       0.23703571
H        2.92513176       3.26425820      26.73628159        0       1.00000000       0.06136101       0.13956632      -0.02974946      -0.22438925      -0.25307417      -0.23332411
H        4.31822300       0.87261837      26.80267819        0       1.00000000      -0.01564207       0.06160790      -0.04682185       0.04543133       0.10616164      -0.11699365
H        4.51427885       2.56768860      31.33800692        0       1.00000000       0.05081183      -0.06738195      -0.04888597       0.00737135       0.04220956       0.06370277
22
Lattice="5.612310241546866 0.0 0.0 0.0 4.860403243099165 0.0 0.0 0.0 44.58243212332868" Properties=species:S:1:pos:R:3:tags:I:1:masses:R:1:momenta:R:3:forces:R:3 KEmax=28.4371901128168 iter=50119 volume=1216.1236359717223 set_wall=T ns_energy=-14.563195652297034 last_walked_iter_clone=49953 energy=-14.633226483312768 stress="0.01985042502048307 -0.0003716416873182673 -0.0016872098878449133 -0.0003716416873182673 0.021707166787398702 -0.00034623900321803253 -0.0016872098878449133 -0.00034623900321803253 0.011569949970453056" pbc="T T F"
H        1.40307756       0.81006721      20.00000000        3       1.00000000       0.00000000       0.00000000       0.00000000       0.00000000       0.00000000       0.00000000
H        4.20923268       0.81006721      20.00000000        3       1.00000000       0.00000000       0.00000000       0.00000000       0.00000000       0.00000000       0.00000000
H        0.00000000       3.24026883      20.00000000        3       1.00000000       0.00000000       0.00000000       0.00000000       0.00000000       0.00000000       0.00000000
H        2.80615512       3.24026883      20.00000000        3       1.00000000       0.00000000       0.00000000       0.00000000       0.00000000       0.00000000       0.00000000
H        0.00000000       1.62013441      22.29121606        2       1.00000000       0.00000000       0.00000000       0.00000000       0.00000000       0.00000000       0.00000000
H        2.80615512       1.62013441      22.29121606        2       1.00000000       0.00000000       0.00000000       0.00000000       0.00000000       0.00000000       0.00000000
H        1.40307756       4.05033604      22.29121606        2       1.00000000       0.00000000       0.00000000       0.00000000       0.00000000       0.00000000       0.00000000
H        4.20923268       4.05033604      22.29121606        2       1.00000000       0.00000000       0.00000000       0.00000000       0.00000000       0.00000000       0.00000000
H        0.00000000       0.00000000      24.58243212        1       1.00000000       0.00000000       0.00000000       0.00000000       0.00000000       0.00000000       0.00000000
H        2.80615512       0.00000000      24.58243212        1       1.00000000       0.00000000       0.00000000       0.00000000       0.00000000       0.00000000       0.00000000
H        1.40307756       2.43020162      24.58243212        1       1.00000000       0.00000000       0.00000000       0.00000000       0.00000000       0.00000000       0.00000000
H        4.20923268       2.43020162      24.58243212        1       1.00000000       0.00000000       0.00000000       0.00000000       0.00000000       0.00000000       0.00000000
H        5.60776597       1.64150522      26.79423817        0       1.00000000      -0.13118029       0.16927990       0.02623408       0.21856839       0.20729752      -0.14352824
H        1.35406832       0.82991528      29.03626770        0       1.00000000      -0.18267350      -0.11988999       0.20255558       0.26622339       0.02341699       0.01495664
H        4.10429523       4.07183945      26.73762800        0       1.00000000       0.01532870       0.13363638      -0.02987740      -0.39608487      -0.01869544      -0.09994029
H        2.34138274       4.69771051      31.30856824        0       1.00000000       0.02982401      -0.06031864       0.08588039       0.24701516       0.27145932      -0.08716424
H        2.69690588       3.29228460      28.96515411        0       1.00000000       0.01026959       0.05516588      -0.02021411       0.20046516      -0.01471968       0.20224078
H        3.82031588       2.35044284      31.17188196        0       1.00000000       0.05279880       0.10311842       0.05995769       0.02674073      -0.25239358      -0.10546823
H        2.79274978       1.61846000      26.81725755        0       1.00000000      -0.03257288       0.05942364       0.01626044      -0.15726800       0.07637608       0.23703571
H        1.30266830       4.09761164      26.77017869        0       1.00000000       0.03992033      -0.10883648       0.07383225      -0.22438925      -0.25307417      -0.23332411
H        4.17081172       0.82319246      29.03935985        0       1.00000000      -0.02533770      -0.05660316       0.05087900       0.04543133       0.10616164      -0.11699365
H        5.55150694       3.29506384      29.04309313        0       1.00000000       0.01879921      -0.08284542      -0.17300726       0.00737135       0.04220956       0.06370277
22
Lattice="5.612310241546866 0.0 0.0 0.0 4.860403243099165 0.0 0.0 0.0 44.58243212332868" Properties=species:S:1:pos:R:3:tags:I:1:masses:R:1:momenta:R:3:forces:R:3 KEmax=28.4371901128168 iter=50119 volume=1216.1236359717223 set_wall=T ns_energy=-14.55747425071105 last_walked_iter_clone=50053 energy=-14.633226483312768 stress="0.01985042502048307 -0.0003716416873182673 -0.0016872098878449133 -0.0003716416873182673 0.021707166787398702 -0.00034623900321803253 -0.0016872098878449133 -0.00034623900321803253 0.011569949970453056" pbc="T T F"
H        1.40307756       0.81006721      20.00000000        3       1.00000000       0.00000000       0.00000000       0.00000000       0.00000000       0.00000000       0.00000000
H        4.20923268       0.81006721      20.00000000        3       1.00000000       0.00000000       0.00000000       0.00000000       0.00000000       0.00000000       0.00000000
H        0.00000000       3.24026883      20.00000000        3       1.00000000       0.00000000       0.00000000       0.00000000       0.00000000       0.00000000       0.00000000
H        2.80615512       3.24026883      20.00000000        3       1.00000000       0.00000000       0.00000000       0.00000000       0.00000000       0.00000000       0.00000000
H        0.00000000       1.62013441      22.29121606        2       1.00000000       0.00000000       0.00000000       0.00000000       0.00000000       0.00000000       0.00000000
H        2.80615512       1.62013441      22.29121606        2       1.00000000       0.00000000       0.00000000       0.00000000       0.00000000       0.00000000       0.00000000
H        1.40307756       4.05033604      22.29121606        2       1.00000000       0.00000000       0.00000000       0.00000000       0.00000000       0.00000000       0.00000000
H        4.20923268       4.05033604      22.29121606        2       1.00000000       0.00000000       0.00000000       0.00000000       0.00000000       0.00000000       0.00000000
H        0.00000000       0.00000000      24.58243212        1       1.00000000       0.00000000       0.00000000       0.00000000       0.00000000       0.00000000       0.00000000
H        2.80615512       0.00000000      24.58243212        1       1.00000000       0.00000000       0.00000000       0.00000000       0.00000000       0.00000000       0.00000000
H        1.40307756       2.43020162      24.58243212        1       1.00000000       0.00000000       0.00000000       0.00000000       0.00000000       0.00000000       0.00000000
H        4.20923268       2.43020162      24.58243212        1       1.00000000       0.00000000       0.00000000       0.00000000       0.00000000       0.00000000       0.00000000
H        5.49499096       1.55813312      26.81692480        0       1.00000000      -0.03390942      -0.10565937       0.03586093       0.21856839       0.20729752      -0.14352824
H        1.25695262       0.94794081      29.06576453        0       1.00000000       0.01484970      -0.08801661      -0.03540257       0.26622339       0.02341699       0.01495664
H        4.16161463       4.11244149      26.81327249        0       1.00000000      -0.12931694       0.03153594       0.03431754      -0.39608487      -0.01869544      -0.09994029
H        2.69564390       4.72696876      31.30767338        0       1.00000000       0.13717376       0.02499432      -0.03835113       0.24701516       0.27145932      -0.08716424
H        2.75081483       3.27500334      29.11302574        0       1.00000000       0.00301813       0.11658328      -0.08613456       0.20046516      -0.01471968       0.20224078
H        4.30918934       2.34969273      31.32576917        0       1.00000000       0.01529493       0.03939122      -0.04227259       0.02674073      -0.25239358      -0.10546823
H        2.75648378       1.63214413      26.81397641        0       1.00000000       0.01131994       0.15415378      -0.02721799      -0.15726800       0.07637608       0.23703571
H        1.33940290       3.98546166      26.77374571        0       1.00000000       0.06188610       0.02561106       0.08638029      -0.22438925      -0.25307417      -0.23332411
H        4.08917062       0.89652475      29.04558840        0       1.00000000       0.11998559      -0.04891101       0.11331500       0.04543133       0.10616164      -0.11699365
H        5.47358121       3.26421037      28.94213939        0       1.00000000      -0.07188070      -0.01915773       0.04571501       0.00737135       0.04220956       0.06370277
22
Lattice="5.612310241546866 0.0 0.0 0.0 4.860403243099165 0.0 0.0 0.0 44.58243212332868" Properties=species:S:1:pos:R:3:tags:I:1:masses:R:1:momenta:R:3:forces:R:3 KEmax=28.4371901128168 iter=50119 volume=1216.1236359717223 set_wall=T ns_energy=-14.563881102872388 last_walked_iter_clone=49979 energy=-14.633226483312768 stress="0.01985042502048307 -0.0003716416873182673 -0.0016872098878449133 -0.0003716416873182673 0.021707166787398702 -0.00034623900321803253 -0.0016872098878449133 -0.00034623900321803253 0.011569949970453056" pbc="T T F"
H        1.40307756       0.81006721      20.00000000        3       1.00000000       0.00000000       0.00000000       0.00000000       0.00000000       0.00000000       0.00000000
H        4.20923268       0.81006721      20.00000000        3       1.00000000       0.00000000       0.00000000       0.00000000       0.00000000       0.00000000       0.00000000
H        0.00000000       3.24026883      20.00000000        3       1.00000000       0.00000000       0.00000000       0.00000000       0.00000000       0.00000000       0.00000000
H        2.80615512       3.24026883      20.00000000        3       1.00000000       0.00000000       0.00000000       0.00000000       0.00000000       0.00000000       0.00000000
H        0.00000000       1.62013441      22.29121606        2       1.00000000       0.00000000       0.00000000       0.00000000       0.00000000       0.00000000       0.00000000
H        2.80615512       1.62013441      22.29121606        2       1.00000000       0.00000000       0.00000000       0.00000000       0.00000000       0.00000000       0.00000000
H        1.40307756       4.05033604      22.29121606        2       1.00000000       0.00000000       0.00000000       0.00000000       0.00000000       0.00000000       0.00000000
H        4.20923268       4.05033604      22.29121606        2       1.00000000       0.00000000       0.00000000       0.00000000       0.00000000       0.00000000       0.00000000
H        0.00000000       0.00000000      24.58243212        1       1.00000000       0.00000000       0.00000000       0.00000000       0.00000000       0.00000000       0.00000000
H        2.80615512       0.00000000      24.58243212        1       1.00000000       0.00000000       0.00000000       0.00000000       0.00000000       0.00000000       0.00000000
H        1.40307756       2.43020162      24.58243212        1       1.00000000       0.00000000       0.00000000       0.00000000       0.00000000       0.00000000       0.00000000