22
Lattice="5.612310241546866 0.0 0.0 0.0 4.860403243099165 0.0 0.0 0.0 44.58243212332868" Properties=species:S:1:pos:R:3:tags:I:1:masses:R:1:momenta:R:3 KEmax=28.4371901128168 iter=99 volume=1216.1236359717223 set_wall=T ns_energy=27861.044451844788 ns_P=0.0 config_n_global=99 ns_KE=11.36545623555267 pbc="T T F"
H        1.40307756       0.81006721      20.00000000        3       1.00000000       0.00000000       0.00000000       0.00000000
H        4.20923268       0.81006721      20.00000000        3       1.00000000       0.00000000       0.00000000       0.00000000
H        0.00000000       3.24026883      20.00000000        3       1.00000000       0.00000000       0.00000000       0.00000000
H        2.80615512       3.24026883      20.00000000        3       1.00000000       0.00000000       0.00000000       0.00000000
H        0.00000000       1.62013441      22.29121606        2       1.00000000       0.00000000       0.00000000       0.00000000
H        2.80615512       1.62013441      22.29121606        2       1.00000000       0.00000000       0.00000000       0.00000000
H        1.40307756       4.05033604      22.29121606        2       1.00000000       0.00000000       0.00000000       0.00000000
H        4.20923268       4.05033604      22.29121606        2       1.00000000       0.00000000       0.00000000       0.00000000
H        0.00000000       0.00000000      24.58243212        1       1.00000000       0.00000000       0.00000000       0.00000000
H        2.80615512       0.00000000      24.58243212        1       1.00000000       0.00000000       0.00000000       0.00000000
H        1.40307756       2.43020162      24.58243212        1       1.00000000       0.00000000       0.00000000       0.00000000
H        4.20923268       2.43020162      24.58243212        1       1.00000000       0.00000000       0.00000000       0.00000000
H        0.80174163       0.37831860      38.61522615        0       1.00000000       0.91934160      -0.30499426      -0.38636520
H        1.86184340       2.73069149      28.58710540        0       1.00000000       0.89405411      -0.05719206       0.82773005
H        0.38395251       1.47883735      32.38292310        0       1.00000000      -0.19315503       1.48514089       1.43547051
H        0.96912562       2.98676717      28.92280420        0       1.00000000       1.44954702       0.73074915      -1.27842356
H        0.30259152       4.69771005      41.08848451        0       1.00000000       0.04193793       1.76249243      -0.47259511
H        1.38655701       4.62489914      40.07133109        0       1.00000000       0.70849219      -0.36949403      -0.08693846
H        2.85272193       4.52765366      29.59275651        0       1.00000000       0.81335842      -0.14711080      -0.04421865
H        2.77500165       1.60251786      36.91246031        0       1.00000000      -0.10598689       0.57638301      -2.12871624
H        1.86820234       0.40055801      30.98356611        0       1.00000000      -0.47071954      -0.54054397       0.17414891
H        3.14982535       1.35091386      33.08264923        0       1.00000000      -1.04666828       0.61613694      -0.16066687
22
Lattice="5.612310241546866 0.0 0.0 0.0 4.860403243099165 0.0 0.0 0.0 44.58243212332868" Properties=species:S:1:pos:R:3:tags:I:1:masses:R:1:momenta:R:3 KEmax=28.4371901128168 iter=199 volume=1216.1236359717223 set_wall=T ns_energy=2378.1373432724854 ns_P=0.0 config_n_global=199 ns_KE=13.651606303443451 pbc="T T F"
H        1.40307756       0.81006721      20.00000000        3       1.00000000       0.00000000       0.00000000       0.00000000
H        4.20923268       0.81006721      20.00000000        3       1.00000000       0.00000000       0.00000000       0.00000000
H        0.00000000       3.24026883      20.00000000        3       1.00000000       0.00000000       0.00000000       0.00000000
H        2.80615512       3.24026883      20.00000000        3       1.00000000       0.00000000       0.00000000       0.00000000
H        0.00000000       1.62013441      22.29121606        2       1.00000000       0.00000000       0.00000000       0.00000000
H        2.80615512       1.62013441      22.29121606        2       1.00000000       0.00000000       0.00000000       0.00000000
H        1.40307756       4.05033604      22.29121606        2       1.00000000       0.00000000       0.00000000       0.00000000
H        4.20923268       4.05033604      22.29121606        2       1.00000000       0.00000000       0.00000000       0.00000000
H        0.00000000       0.00000000      24.58243212        1       1.00000000       0.00000000       0.00000000       0.00000000
H        2.80615512       0.00000000      24.58243212        1       1.00000000       0.00000000       0.00000000       0.00000000
H        1.40307756       2.43020162      24.58243212        1       1.00000000       0.00000000       0.00000000       0.00000000
H        4.20923268       2.43020162      24.58243212        1       1.00000000       0.00000000       0.00000000       0.00000000
H        0.96317719       0.90110737      33.68136480        0       1.00000000      -0.50867766      -0.65850303      -0.01656819
H        4.59995810       2.74188397      32.69596210        0       1.00000000      -0.71883381       0.16877666       0.28787245
H        0.35829408       1.69236216      36.15863256        0       1.00000000       0.58311629      -1.11428802      -1.27192146
H        2.45597492       2.55323752      42.20723844        0       1.00000000       1.25035177       0.64843780       1.11225129
H        0.85026084       2.39930617      38.90981349        0       1.00000000       0.60817867      -0.81987095      -1.07093176
H        1.02528654       4.70891370      28.70602192        0       1.00000000       1.00383482      -1.15769924       1.36248547
H        1.16925443       4.42912889      40.69201055        0       1.00000000       0.14052034      -1.52597333      -0.79624650
H        0.59688392       2.32750705      33.25258525        0       1.00000000       0.43239489       0.74720812      -1.88851666
H        4.24586956       2.91590929      31.50182121        0       1.00000000       0.82561728      -0.50035247      -1.06176122
H        4.32208566       1.66490403      33.43824197        0       1.00000000      -1.18523542       1.08015408      -1.11526603
22
Lattice="5.612310241546866 0.0 0.0 0.0 4.860403243099165 0.0 0.0 0.0 44.58243212332868" Properties=species:S:1:pos:R:3:tags:I:1:masses:R:1:momenta:R:3 KEmax=28.4371901128168 iter=299 volume=1216.1236359717223 set_wall=T ns_energy=472.4404204530211 ns_P=0.0 config_n_global=299 ns_KE=9.985333606615344 pbc="T T F"
H        1.40307756       0.81006721      20.00000000        3       1.00000000       0.00000000       0.00000000       0.00000000
H        4.20923268       0.81006721      20.00000000        3       1.00000000       0.00000000       0.00000000       0.00000000
H        0.00000000       3.24026883      20.00000000        3       1.00000000       0.00000000       0.00000000       0.00000000
H        2.80615512       3.24026883      20.00000000        3       1.00000000       0.00000000       0.00000000       0.00000000
H        0.00000000       1.62013441      22.29121606        2       1.00000000       0.00000000       0.00000000       0.00000000
H        2.80615512       1.62013441      22.29121606        2       1.00000000       0.00000000       0.00000000       0.00000000
H        1.40307756       4.05033604      22.29121606        2       1.00000000       0.00000000       0.00000000       0.00000000
H        4.20923268       4.05033604      22.29121606        2       1.00000000       0.00000000       0.00000000       0.00000000
H        0.00000000       0.00000000      24.58243212        1       1.00000000       0.00000000       0.00000000       0.00000000
H        2.80615512       0.00000000      24.58243212        1       1.00000000       0.00000000       0.00000000       0.00000000
H        1.40307756       2.43020162      24.58243212        1       1.00000000       0.00000000       0.00000000       0.00000000
H        4.20923268       2.43020162      24.58243212        1       1.00000000       0.00000000       0.00000000       0.00000000
H        5.02815067       4.08168733      33.48922857        0       1.00000000      -0.39119051      -0.99932862       1.30723589
H        5.00192209       0.35457277      41.98226006        0       1.00000000      -0.87592214      -0.01861209       1.54519237
H        5.58984855       3.43941310      28.41388254        0       1.00000000       0.39834412      -0.23492575      -1.01059542
H        3.70280640       4.38086740      35.38128128        0       1.00000000      -0.43982646       0.09925602      -0.54388119
H        4.66374301       0.92002120      40.68473756        0       1.00000000       0.20884141       0.33506076      -1.31597110
H        2.44916492       4.85818272      35.99265562        0       1.00000000       0.09361749       1.29728728      -0.97732589
H        1.94153735       1.33380581      40.76222342        0       1.00000000       0.32100642       0.56344002      -0.47826184
H        4.92918979       0.59126253      27.27778364        0       1.00000000       0.73724309       1.30071913       0.19884337
H        2.34433378       3.15929010      30.73592181        0       1.00000000      -0.31228994      -0.17333339       1.64283252
H        2.50279100       3.14457753      42.33153149        0       1.00000000       0.97670937       0.95855861       0.25028393
22
Lattice="5.612310241546866 0.0 0.0 0.0 4.860403243099165 0.0 0.0 0.0 44.58243212332868" Properties=species:S:1:pos:R:3:tags:I:1:masses:R:1:momenta:R:3 KEmax=28.4371901128168 iter=399 volume=1216.1236359717223 set_wall=T ns_energy=139.94177699804214 last_walked_iter_clone=159 ns_P=0.0 config_n_global=399 ns_KE=25.64262943728762 pbc="T T F"
H        1.40307756       0.81006721      20.00000000        3       1.00000000       0.00000000       0.00000000       0.00000000
H        4.20923268       0.81006721      20.00000000        3       1.00000000       0.00000000       0.00000000       0.00000000
H        0.00000000       3.24026883      20.00000000        3       1.00000000       0.00000000       0.00000000       0.00000000
H        2.80615512       3.24026883      20.00000000        3       1.00000000       0.00000000       0.00000000       0.00000000
H        0.00000000       1.62013441      22.29121606        2       1.00000000       0.00000000       0.00000000       0.00000000
H        2.80615512       1.62013441      22.29121606        2       1.00000000       0.00000000       0.00000000       0.00000000
H        1.40307756       4.05033604      22.29121606        2       1.00000000       0.00000000       0.00000000       0.00000000
H        4.20923268       4.05033604      22.29121606        2       1.00000000       0.00000000       0.00000000       0.00000000
H        0.00000000       0.00000000      24.58243212        1       1.00000000       0.00000000       0.00000000       0.00000000
H        2.80615512       0.00000000      24.58243212        1       1.00000000       0.00000000       0.00000000       0.00000000
H        1.40307756       2.43020162      24.58243212        1       1.00000000       0.00000000       0.00000000       0.00000000
H        4.20923268       2.43020162      24.58243212        1       1.00000000       0.00000000       0.00000000       0.00000000
H        0.39557351       4.78729177      29.35168409        0       1.00000000       0.75303630      -0.29511583       1.56159573
H        3.43420377       2.29842061      29.85574411        0       1.00000000      -1.02722102       2.60464795      -1.22012517
H        3.75823419       2.30687645      34.25876247        0       1.00000000       1.02202435      -0.10786240      -0.27432320
H        1.92452165       2.19058308      32.93312838        0       1.00000000      -0.58121670      -0.81256698      -2.15418025
H        0.17034658       3.52022125      31.04883188        0       1.00000000       1.02174960       0.19152800      -1.07712408
H        2.18404786       1.28443588      27.30819943        0       1.00000000       0.69734321      -0.44640451       0.08731078
H        4.87613147       3.21203702      39.80819152        0       1.00000000      -3.60964622      -0.89711438       0.65099820
H        1.46703758       3.85414951      40.53350302        0       1.00000000       1.74056803       0.25882973       1.66054374
H        2.99781633       3.40942840      40.51424729        0       1.00000000      -1.72088085       1.09748878      -0.05942168
H        2.12141868       3.60004090      31.97902870        0       1.00000000      -0.52903277      -2.00088470       0.77163296
22
Lattice="5.612310241546866 0.0 0.0 0.0 4.860403243099165 0.0 0.0 0.0 44.58243212332868" Properties=species:S:1:pos:R:3:tags:I:1:masses:R:1:momenta:R:3 KEmax=28.4371901128168 iter=499 volume=1216.1236359717223 set_wall=T ns_energy=66.60269137490053 ns_P=0.0 config_n_global=499 ns_KE=16.013528505017796 pbc="T T F"
H        1.40307756       0.81006721      20.00000000        3       1.00000000       0.00000000       0.00000000       0.00000000
H        4.20923268       0.81006721      20.00000000        3       1.00000000       0.00000000       0.00000000       0.00000000
H        0.00000000       3.24026883      20.00000000        3       1.00000000       0.00000000       0.00000000       0.00000000
H        2.80615512       3.24026883      20.00000000        3       1.00000000       0.00000000       0.00000000       0.00000000
H        0.00000000       1.62013441      22.29121606        2       1.00000000       0.00000000       0.00000000       0.00000000
H        2.80615512       1.62013441      22.29121606        2       1.00000000       0.00000000       0.00000000       0.00000000
H        1.40307756       4.05033604      22.29121606        2       1.00000000       0.00000000       0.00000000       0.00000000
H        4.20923268       4.05033604      22.29121606        2       1.00000000       0.00000000       0.00000000       0.00000000
H        0.00000000       0.00000000      24.58243212        1       1.00000000       0.00000000       0.00000000       0.00000000
H        2.80615512       0.00000000      24.58243212        1       1.00000000       0.00000000       0.00000000       0.00000000
H        1.40307756       2.43020162      24.58243212        1       1.00000000       0.00000000       0.00000000       0.00000000
H        4.20923268       2.43020162      24.58243212        1       1.00000000       0.00000000       0.00000000       0.00000000
H        0.24950943       1.79475430      29.49660295        0       1.00000000       0.76716794      -0.65818628       1.06699023
H        2.56026650       3.48153379      30.02701129        0       1.00000000       1.38576071       1.43581895       0.23119350
H        0.40415398       3.50810921      38.77336820        0       1.00000000       2.49340632      -0.01312732      -0.75367712
H        1.28203907       1.77028850      27.42224892        0       1.00000000       0.94548002       0.10880225      -0.87601601
H        1.70444097       3.49165732      28.62728860        0       1.00000000       0.47445801      -0.17615995       0.41848430
H        2.83219146       0.70370759      37.68922069        0       1.00000000       0.88651867       2.23471718      -0.56095188
H        4.24204798       4.01152320      34.38847456        0       1.00000000       0.38487480       0.75007146       0.24300436
H        0.74553469       3.20043101      33.06914279        0       1.00000000       0.99916039       0.29958706       0.98690956
H        3.15846820       1.67984081      33.02404147        0       1.00000000      -1.28380734       0.27334601       0.13534062
H        2.91047528       0.81289804      42.30106673        0       1.00000000      -1.21368620       1.76018910       1.30493681
22
Lattice="5.612310241546866 0.0 0.0 0.0 4.860403243099165 0.0 0.0 0.0 44.58243212332868" Properties=species:S:1:pos:R:3:tags:I:1:masses:R:1:momenta:R:3 KEmax=28.4371901128168 iter=599 volume=1216.1236359717223 set_wall=T ns_energy=41.156037381718626 last_walked_iter_clone=392 ns_P=0.0 config_n_global=599 ns_KE=26.172726535804106 pbc="T T F"
H        1.40307756       0.81006721      20.00000000        3       1.00000000       0.00000000       0.00000000       0.00000000
H        4.20923268       0.81006721      20.00000000        3       1.00000000       0.00000000       0.00000000       0.00000000
H        0.00000000       3.24026883      20.00000000        3       1.00000000       0.00000000       0.00000000       0.00000000
H        2.80615512       3.24026883      20.00000000        3       1.00000000       0.00000000       0.00000000       0.00000000
H        0.00000000       1.62013441      22.29121606        2       1.00000000       0.00000000       0.00000000       0.00000000
H        2.80615512       1.62013441      22.29121606        2       1.00000000       0.00000000       0.00000000       0.00000000
H        1.40307756       4.05033604      22.29121606        2       1.00000000       0.00000000       0.00000000       0.00000000
H        4.20923268       4.05033604      22.29121606        2       1.00000000       0.00000000       0.00000000       0.00000000
H        0.00000000       0.00000000      24.58243212        1       1.00000000       0.00000000       0.00000000       0.00000000
H        2.80615512       0.00000000      24.58243212        1       1.00000000       0.00000000       0.00000000       0.00000000
H        1.40307756       2.43020162      24.58243212        1       1.00000000       0.00000000       0.00000000       0.00000000
H        4.20923268       2.43020162      24.58243212        1       1.00000000       0.00000000       0.00000000       0.00000000
H        0.10657225       1.74500879      39.98144867        0       1.00000000       0.82431353       2.36740424      -0.17985289
H        0.21360598       2.03320236      29.19220900        0       1.00000000      -1.43221352      -3.06143911       0.30721622
H        1.31187643       3.55374296      29.19709566        0       1.00000000      -0.38178250       0.44712412      -0.18056350
H        4.51235997       4.73564491      34.04507569        0       1.00000000      -0.82052559      -0.68483450      -0.09877959
H        2.65868949       4.81062140      29.43877439        0       1.00000000       2.24521363       3.44582255       0.29500928
H        0.60478117       1.58315982      35.94720130        0       1.00000000      -1.83867390       0.56479543      -1.37107517
H        2.16179268       1.10541022      33.44031374        0       1.00000000       1.72685214      -1.91985020      -1.07461885
H        0.78564997       2.74144823      33.66566853        0       1.00000000      -0.48508837      -0.11351863      -1.11299870
H        4.73126486       4.62269173      28.42023703        0       1.00000000       0.19309470      -0.32826402       0.74154382
H        1.29935171       2.59899217      41.86952969        0       1.00000000       0.36570366       0.49505521       0.12670092
22
Lattice="5.612310241546866 0.0 0.0 0.0 4.860403243099165 0.0 0.0 0.0 44.58243212332868" Properties=species:S:1:pos:R:3:tags:I:1:masses:R:1:momenta:R:3 KEmax=28.4371901128168 iter=699 volume=1216.1236359717223 set_wall=T ns_energy=30.515500252325314 last_walked_iter_clone=471 ns_P=0.0 config_n_global=699 ns_KE=27.975974917322514 pbc="T T F"
H        1.40307756       0.81006721      20.00000000        3       1.00000000       0.00000000       0.00000000       0.00000000
H        4.20923268       0.81006721      20.00000000        3       1.00000000       0.00000000       0.00000000       0.00000000
H        0.00000000       3.24026883      20.00000000        3       1.00000000       0.00000000       0.00000000       0.00000000
H        2.80615512       3.24026883      20.00000000        3       1.00000000       0.00000000       0.00000000       0.00000000
H        0.00000000       1.62013441      22.29121606        2       1.00000000       0.00000000       0.00000000       0.00000000
H        2.80615512       1.62013441      22.29121606        2       1.00000000       0.00000000       0.00000000       0.00000000
H        1.40307756       4.05033604      22.29121606        2       1.00000000       0.00000000       0.00000000       0.00000000
H        4.20923268       4.05033604      22.29121606        2       1.00000000       0.00000000       0.00000000       0.00000000
H        0.00000000       0.00000000      24.58243212        1       1.00000000       0.00000000       0.00000000       0.00000000
H        2.80615512       0.00000000      24.58243212        1       1.00000000       0.00000000       0.00000000       0.00000000
H        1.40307756       2.43020162      24.58243212        1       1.00000000       0.00000000       0.00000000       0.00000000
H        4.20923268       2.43020162      24.58243212        1       1.00000000       0.00000000       0.00000000       0.00000000
H        3.52364399       0.13191613      28.96467593        0       1.00000000       0.82040375      -2.32067746      -0.41237160
H        1.72892734       3.97422431      28.64251650        0       1.00000000       1.13753306       0.21146585       2.79146615
H        5.41287204       1.45141860      34.23011247        0       1.00000000       0.80493696       0.65627472      -0.15082459
H        5.07222606       3.80533298      35.87604045        0       1.00000000      -1.59926916       1.00190659      -2.35561340
H        2.71106592       4.41593160      34.22403730        0       1.00000000       1.08387254       0.55161632       0.63870720
H        3.49721710       1.38040971      30.95889283        0       1.00000000      -0.29072409      -1.37783884       0.01353707
H        3.70700090       1.71683474      36.68030434        0       1.00000000      -1.81669964       1.27749966      -0.22257273
H        2.26910448       1.75056951      26.74815568        0       1.00000000       0.65092651       0.02457698       0.50856414
H        0.10037054       0.03719503      32.16351836        0       1.00000000      -1.66663964      -0.03127886       0.46236572
H        0.06261404       2.26217745      36.87317799        0       1.00000000       3.58844870       2.08131551       0.80263560
22
Lattice="5.612310241546866 0.0 0.0 0.0 4.860403243099165 0.0 0.0 0.0 44.58243212332868" Properties=species:S:1:pos:R:3:tags:I:1:masses:R:1:momenta:R:3 KEmax=28.4371901128168 iter=799 volume=1216.1236359717223 set_wall=T ns_energy=23.735569175094778 last_walked_iter_clone=610 ns_P=0.0 config_n_global=799 ns_KE=27.241720128723742 pbc="T T F"
H        1.40307756       0.81006721      20.00000000        3       1.00000000       0.00000000       0.00000000       0.00000000
H        4.20923268       0.81006721      20.00000000        3       1.00000000       0.00000000       0.00000000       0.00000000
H        0.00000000       3.24026883      20.00000000        3       1.00000000       0.00000000       0.00000000       0.00000000
H        2.80615512       3.24026883      20.00000000        3       1.00000000       0.00000000       0.00000000       0.00000000
H        0.00000000       1.62013441      22.29121606        2       1.00000000       0.00000000       0.00000000       0.00000000
H        2.80615512       1.62013441      22.29121606        2       1.00000000       0.00000000       0.00000000       0.00000000
H        1.40307756       4.05033604      22.29121606        2       1.00000000       0.00000000       0.00000000       0.00000000
H        4.20923268       4.05033604      22.29121606        2       1.00000000       0.00000000       0.00000000       0.00000000
H        0.00000000       0.00000000      24.58243212        1       1.00000000       0.00000000       0.00000000       0.00000000
H        2.80615512       0.00000000      24.58243212        1       1.00000000       0.00000000       0.00000000       0.00000000
H        1.40307756       2.43020162      24.58243212        1       1.00000000       0.00000000       0.00000000       0.00000000
H        4.20923268       2.43020162      24.58243212        1       1.00000000       0.00000000       0.00000000       0.00000000
H        3.13170364       1.83234512      28.41147397        0       1.00000000      -0.16375273       1.68278262       0.95695196
H        4.52269752       3.70236243      29.98158179        0       1.00000000       0.12087400       0.11873562       1.97618930
H        4.06863362       0.90506186      40.96462560        0       1.00000000      -1.46910937       0.10950090      -2.07140535
H        5.28133714       2.40671400      32.52152995        0       1.00000000       2.03555052       0.85295184       0.09300289
H        1.61237689       4.16707778      34.74719562        0       1.00000000       1.27415621       1.69185953       0.09749964
H        0.42593093       1.00604898      41.03227835        0       1.00000000       0.03798239      -0.66677088       0.63870116
H        4.14792757       3.97260482      39.61299740        0       1.00000000       1.24551559      -0.32694461      -0.66374699
H        3.08821850       4.37307817      37.08302863        0       1.00000000       2.66475480      -2.29527275      -1.60610482
H        2.63648249       1.68561296      39.21942684        0       1.00000000      -1.20177528      -1.17563210      -0.85905467
H        1.51214618       3.78123817      26.93606778        0       1.00000000       2.40889982      -0.31513707       1.88974065
22
Lattice="5.612310241546866 0.0 0.0 0.0 4.860403243099165 0.0 0.0 0.0 44.58243212332868" Properties=species:S:1:pos:R:3:tags:I:1:masses:R:1:momenta:R:3 KEmax=28.4371901128168 iter=899 volume=1216.1236359717223 set_wall=T ns_energy=20.784877598731462 last_walked_iter_clone=588 ns_P=0.0 config_n_global=899 ns_KE=26.71845784753016 pbc="T T F"
H        1.40307756       0.81006721      20.00000000        3       1.00000000       0.00000000       0.00000000       0.00000000
H        4.20923268       0.81006721      20.00000000        3       1.00000000       0.00000000       0.00000000       0.00000000
H        0.00000000       3.24026883      20.00000000        3       1.00000000       0.00000000       0.00000000       0.00000000
H        2.80615512       3.24026883      20.00000000        3       1.00000000       0.00000000       0.00000000       0.00000000
H        0.00000000       1.62013441      22.29121606        2       1.00000000       0.00000000       0.00000000       0.00000000
H        2.80615512       1.62013441      22.29121606        2       1.00000000       0.00000000       0.00000000       0.00000000
H        1.40307756       4.05033604      22.29121606        2       1.00000000       0.00000000       0.00000000       0.00000000
H        4.20923268       4.05033604      22.29121606        2       1.00000000       0.00000000       0.00000000       0.00000000
H        0.00000000       0.00000000      24.58243212        1       1.00000000       0.00000000       0.00000000       0.00000000
H        2.80615512       0.00000000      24.58243212        1       1.00000000       0.00000000       0.00000000       0.00000000
H        1.40307756       2.43020162      24.58243212        1       1.00000000       0.00000000       0.00000000       0.00000000
H        4.20923268       2.43020162      24.58243212        1       1.00000000       0.00000000       0.00000000       0.00000000
H        3.55465381       0.10929082      29.23086119        0       1.00000000      -1.11350548      -0.06559641       1.50346309
H        1.81803667       3.99763558      28.26777875        0       1.00000000      -0.99332182      -0.66405215      -3.22507140
H        5.19525458       1.42605348      34.21359696        0       1.00000000      -1.72211401       0.70453639      -1.38198045
H        5.04534069       3.98043659      35.83037235        0       1.00000000       0.35636773       2.75638877      -1.04934825
H        2.55626606       4.31990408      34.27595862        0       1.00000000       1.11375569      -1.68524960      -1.30165178
H        3.50845336       1.43332398      30.93289598        0       1.00000000       0.28295907       0.48091312      -0.44956867
H        3.55365905       1.76987172      36.63496203        0       1.00000000      -2.33537683      -0.61734139      -0.34308322
H        2.31870539       1.60909761      26.79068857        0       1.00000000       0.28727552      -1.25874269       1.76668210
H        5.60068992       0.15856397      32.02556733        0       1.00000000      -2.24875242       0.52322075       0.57293164
H        0.06862371       2.16982700      36.97242987        0       1.00000000       0.81054301      -0.38372298       0.64306437
22
Lattice="5.612310241546866 0.0 0.0 0.0 4.860403243099165 0.0 0.0 0.0 44.58243212332868" Properties=species:S:1:pos:R:3:tags:I:1:masses:R:1:momenta:R:3 KEmax=28.4371901128168 iter=999 volume=1216.1236359717223 set_wall=T ns_energy=19.492617114098273 last_walked_iter_clone=893 ns_P=0.0 config_n_global=999 ns_KE=25.564365594247672 pbc="T T F"
H        1.40307756       0.81006721      20.00000000        3       1.00000000       0.00000000       0.00000000       0.00000000
H        4.20923268       0.81006721      20.00000000        3       1.00000000       0.00000000       0.00000000       0.00000000
H        0.00000000       3.24026883      20.00000000        3       1.00000000       0.00000000       0.00000000       0.00000000
H        2.80615512       3.24026883      20.00000000        3       1.00000000       0.00000000       0.00000000       0.00000000
H        0.00000000       1.62013441      22.29121606        2       1.00000000       0.00000000       0.00000000       0.00000000