22
Lattice="5.612310241546866 0.0 0.0 0.0 4.860403243099165 0.0 0.0 0.0 44.58243212332868" Properties=species:S:1:pos:R:3:tags:I:1:masses:R:1:momenta:R:3:forces:R:3 KEmax=28.4371901128168 iter=24817 volume=1216.1236359717223 set_wall=T ns_energy=-11.643981097565721 last_walked_iter_clone=24576 energy=-12.59067480796669 stress="0.012496347844706586 0.002940761171623873 -0.0011346246404608763 0.002940761171623873 0.005633231298792062 0.0010053390714683571 -0.0011346246404608763 0.0010053390714683571 0.0171959888943952" pbc="T T F"
H        1.40307756       0.81006721      20.00000000        3       1.00000000       0.00000000       0.00000000       0.00000000       0.00000000       0.00000000       0.00000000
H        4.20923268       0.81006721      20.00000000        3       1.00000000       0.00000000       0.00000000       0.00000000       0.00000000       0.00000000       0.00000000
H        0.00000000       3.24026883      20.00000000        3       1.00000000       0.00000000       0.00000000       0.00000000       0.00000000       0.00000000       0.00000000
H        2.80615512       3.24026883      20.00000000        3       1.00000000       0.00000000       0.00000000       0.00000000       0.00000000       0.00000000       0.00000000
H        0.00000000       1.62013441      22.29121606        2       1.00000000       0.00000000       0.00000000       0.00000000       0.00000000       0.00000000       0.00000000
H        2.80615512       1.62013441      22.29121606        2       1.00000000       0.00000000       0.00000000       0.00000000       0.00000000       0.00000000       0.00000000
H        1.40307756       4.05033604      22.29121606        2       1.00000000       0.00000000       0.00000000       0.00000000       0.00000000       0.00000000       0.00000000
H        4.20923268       4.05033604      22.29121606        2       1.00000000       0.00000000       0.00000000       0.00000000       0.00000000       0.00000000       0.00000000
H        0.00000000       0.00000000      24.58243212        1       1.00000000       0.00000000       0.00000000       0.00000000       0.00000000       0.00000000       0.00000000
H        2.80615512       0.00000000      24.58243212        1       1.00000000       0.00000000       0.00000000       0.00000000       0.00000000       0.00000000       0.00000000
H        1.40307756       2.43020162      24.58243212        1       1.00000000       0.00000000       0.00000000       0.00000000       0.00000000       0.00000000       0.00000000
H        4.20923268       2.43020162      24.58243212        1       1.00000000       0.00000000       0.00000000       0.00000000       0.00000000       0.00000000       0.00000000
H        4.83858763       0.52330903      33.74186520        0       1.00000000      -0.17490614       0.25230793      -0.16092933       0.02542965      -0.47841357      -0.39972053
H        5.72125513       5.29095062      29.70366593        0       1.00000000       0.08082852       0.58778498      -0.44929589       0.69329100       0.06296832       0.22473548
H        1.25267107       2.76606993      29.89313976        0       1.00000000      -0.24897698      -0.12024152       0.18650830       0.58538953       0.05074338      -0.00043542
H        4.02194296       0.80479896      27.01891147        0       1.00000000      -0.03816463      -0.42603311      -0.17183545       0.14896317      -0.99500949       0.48320533
H        2.85564161       3.30482881      27.05346692        0       1.00000000      -0.10408563       0.64300249       0.22559600      -0.06783540       0.35956079       0.01589647
H        4.05709352       2.90631423      29.36847191        0       1.00000000       0.01045389       0.26834406      -0.24022223      -1.50912749      -0.25135466       0.83283515
H        3.08319584       0.78496633      30.98956037        0       1.00000000       0.08946151      -0.05684989      -0.18495158       0.00299857      -0.02016760      -0.31264480
H        0.21156222       3.38617331      27.02521293        0       1.00000000      -0.36776876       0.17515521      -0.86628660      -0.32735227       0.73869192       0.06479972
H        1.31684781       0.80180849      26.82618230        0       1.00000000      -0.51475649      -0.26141479      -0.04238920       0.22959946       0.69474337      -0.54730161
H        4.52776506       2.78693593      32.17884654        0       1.00000000       0.24090320      -0.01865505      -0.01007500      -0.02265673       0.01257874      -0.27875623
22
Lattice="5.612310241546866 0.0 0.0 0.0 4.860403243099165 0.0 0.0 0.0 44.58243212332868" Properties=species:S:1:pos:R:3:tags:I:1:masses:R:1:momenta:R:3:forces:R:3 KEmax=28.4371901128168 iter=24817 volume=1216.1236359717223 set_wall=T ns_energy=-11.610844683804393 last_walked_iter_clone=24744 energy=-12.59067480796669 stress="0.012496347844706586 0.002940761171623873 -0.0011346246404608763 0.002940761171623873 0.005633231298792062 0.0010053390714683571 -0.0011346246404608763 0.0010053390714683571 0.0171959888943952" pbc="T T F"
H        1.40307756       0.81006721      20.00000000        3       1.00000000       0.00000000       0.00000000       0.00000000       0.00000000       0.00000000       0.00000000
H        4.20923268       0.81006721      20.00000000        3       1.00000000       0.00000000       0.00000000       0.00000000       0.00000000       0.00000000       0.00000000
H        0.00000000       3.24026883      20.00000000        3       1.00000000       0.00000000       0.00000000       0.00000000       0.00000000       0.00000000       0.00000000
H        2.80615512       3.24026883      20.00000000        3       1.00000000       0.00000000       0.00000000       0.00000000       0.00000000       0.00000000       0.00000000
H        0.00000000       1.62013441      22.29121606        2       1.00000000       0.00000000       0.00000000       0.00000000       0.00000000       0.00000000       0.00000000
H        2.80615512       1.62013441      22.29121606        2       1.00000000       0.00000000       0.00000000       0.00000000       0.00000000       0.00000000       0.00000000
H        1.40307756       4.05033604      22.29121606        2       1.00000000       0.00000000       0.00000000       0.00000000       0.00000000       0.00000000       0.00000000
H        4.20923268       4.05033604      22.29121606        2       1.00000000       0.00000000       0.00000000       0.00000000       0.00000000       0.00000000       0.00000000
H        0.00000000       0.00000000      24.58243212        1       1.00000000       0.00000000       0.00000000       0.00000000       0.00000000       0.00000000       0.00000000
H        2.80615512       0.00000000      24.58243212        1       1.00000000       0.00000000       0.00000000       0.00000000       0.00000000       0.00000000       0.00000000
H        1.40307756       2.43020162      24.58243212        1       1.00000000       0.00000000       0.00000000       0.00000000       0.00000000       0.00000000       0.00000000
H        4.20923268       2.43020162      24.58243212        1       1.00000000       0.00000000       0.00000000       0.00000000       0.00000000       0.00000000       0.00000000
H        5.48804674       3.88944784      27.33064292        0       1.00000000       0.02734900       0.48758884       0.03473555       0.02542965      -0.47841357      -0.39972053
H        4.74427125      -0.12406175      31.08779321        0       1.00000000       0.20563745      -0.04626543       0.23802420       0.69329100       0.06296832       0.22473548
H        3.42443703       2.89225345      29.54719907        0       1.00000000      -0.13178043      -0.09740096      -0.19215414       0.58538953       0.05074338      -0.00043542
H        4.29626438       1.42914086      27.56541319        0       1.00000000      -0.33020850      -0.18135179      -0.52112500       0.14896317      -0.99500949       0.48320533
H        2.79275527       3.68361036      26.85444852        0       1.00000000       0.17321392       0.33537205       0.56501331      -0.06783540       0.35956079       0.01589647
H        2.47842560       3.56939390      32.24778955        0       1.00000000       0.23693513      -0.17777857       0.19394083      -1.50912749      -0.25135466       0.83283515
H        1.57051323       0.25550467      29.46703873        0       1.00000000      -0.18047322       0.35339189      -0.15246487       0.00299857      -0.02016760      -0.31264480
H        0.52137561       2.48441055      29.42700510        0       1.00000000       0.32804585       0.01599498       0.26557743      -0.32735227       0.73869192       0.06479972
H        1.19660130       1.19524732      26.60506868        0       1.00000000      -0.25179257       0.60964204       0.01990999       0.22959946       0.69474337      -0.54730161
H        5.91770131       2.14442651      32.01656140        0       1.00000000       0.40985277      -0.20827462       0.10308443      -0.02265673       0.01257874      -0.27875623
22
Lattice="5.612310241546866 0.0 0.0 0.0 4.860403243099165 0.0 0.0 0.0 44.58243212332868" Properties=species:S:1:pos:R:3:tags:I:1:masses:R:1:momenta:R:3:forces:R:3 KEmax=28.4371901128168 iter=24817 volume=1216.1236359717223 set_wall=T ns_energy=-11.773355461336886 last_walked_iter_clone=24720 energy=-12.59067480796669 stress="0.012496347844706586 0.002940761171623873 -0.0011346246404608763 0.002940761171623873 0.005633231298792062 0.0010053390714683571 -0.0011346246404608763 0.0010053390714683571 0.0171959888943952" pbc="T T F"
H        1.40307756       0.81006721      20.00000000        3       1.00000000       0.00000000       0.00000000       0.00000000       0.00000000       0.00000000       0.00000000
H        4.20923268       0.81006721      20.00000000        3       1.00000000       0.00000000       0.00000000       0.00000000       0.00000000       0.00000000       0.00000000
H        0.00000000       3.24026883      20.00000000        3       1.00000000       0.00000000       0.00000000       0.00000000       0.00000000       0.00000000       0.00000000
H        2.80615512       3.24026883      20.00000000        3       1.00000000       0.00000000       0.00000000       0.00000000       0.00000000       0.00000000       0.00000000
H        0.00000000       1.62013441      22.29121606        2       1.00000000       0.00000000       0.00000000       0.00000000       0.00000000       0.00000000       0.00000000
H        2.80615512       1.62013441      22.29121606        2       1.00000000       0.00000000       0.00000000       0.00000000       0.00000000       0.00000000       0.00000000
H        1.40307756       4.05033604      22.29121606        2       1.00000000       0.00000000       0.00000000       0.00000000       0.00000000       0.00000000       0.00000000
H        4.20923268       4.05033604      22.29121606        2       1.00000000       0.00000000       0.00000000       0.00000000       0.00000000       0.00000000       0.00000000
H        0.00000000       0.00000000      24.58243212        1       1.00000000       0.00000000       0.00000000       0.00000000       0.00000000       0.00000000       0.00000000
H        2.80615512       0.00000000      24.58243212        1       1.00000000       0.00000000       0.00000000       0.00000000       0.00000000       0.00000000       0.00000000
H        1.40307756       2.43020162      24.58243212        1       1.00000000       0.00000000       0.00000000       0.00000000       0.00000000       0.00000000       0.00000000
H        4.20923268       2.43020162      24.58243212        1       1.00000000       0.00000000       0.00000000       0.00000000       0.00000000       0.00000000       0.00000000
H        5.74017671       4.96614437      29.13427683        0       1.00000000       0.03739822       0.40977068      -0.38642050       0.02542965      -0.47841357      -0.39972053
H        1.86050197       3.59786600      27.43950955        0       1.00000000      -0.00787734       0.08592979       0.13800962       0.69329100       0.06296832       0.22473548
H        3.54778267       0.82083995      26.97025449        0       1.00000000      -0.20523199      -1.00551464       0.01677455       0.58538953       0.05074338      -0.00043542
H        1.06085283       2.42289862      30.21113341        0       1.00000000       0.41379903       0.13862267      -0.33413912       0.14896317      -0.99500949       0.48320533
H        0.90049935       1.19272481      26.75423488        0       1.00000000       0.23598286      -0.06034425      -0.37142342      -0.06783540       0.35956079       0.01589647
H        4.62909537       3.52154639      27.00798739        0       1.00000000      -0.35823172       0.49485216       0.20714840      -1.50912749      -0.25135466       0.83283515
H        5.74868200       0.84852951      32.17776098        0       1.00000000      -0.01289533       0.47570855       0.02594950       0.00299857      -0.02016760      -0.31264480
H        3.66214732       2.13832176      29.30212940        0       1.00000000       0.37094049       0.02103990      -0.08451230      -0.32735227       0.73869192       0.06479972
H        4.50231061       3.36752119      31.38493367        0       1.00000000      -0.05864118      -0.06696465      -0.21384166       0.22959946       0.69474337      -0.54730161
H        2.56029397       0.22734093      31.12713051        0       1.00000000       0.07506596      -0.05582569      -0.00945760      -0.02265673       0.01257874      -0.27875623
22
Lattice="5.612310241546866 0.0 0.0 0.0 4.860403243099165 0.0 0.0 0.0 44.58243212332868" Properties=species:S:1:pos:R:3:tags:I:1:masses:R:1:momenta:R:3:forces:R:3 KEmax=28.4371901128168 iter=24817 volume=1216.1236359717223 set_wall=T ns_energy=-11.674549509857055 last_walked_iter_clone=24808 energy=-12.59067480796669 stress="0.012496347844706586 0.002940761171623873 -0.0011346246404608763 0.002940761171623873 0.005633231298792062 0.0010053390714683571 -0.0011346246404608763 0.0010053390714683571 0.0171959888943952" pbc="T T F"
H        1.40307756       0.81006721      20.00000000        3       1.00000000       0.00000000       0.00000000       0.00000000       0.00000000       0.00000000       0.00000000
H        4.20923268       0.81006721      20.00000000        3       1.00000000       0.00000000       0.00000000       0.00000000       0.00000000       0.00000000       0.00000000
H        0.00000000       3.24026883      20.00000000        3       1.00000000       0.00000000       0.00000000       0.00000000       0.00000000       0.00000000       0.00000000
H        2.80615512       3.24026883      20.00000000        3       1.00000000       0.00000000       0.00000000       0.00000000       0.00000000       0.00000000       0.00000000
H        0.00000000       1.62013441      22.29121606        2       1.00000000       0.00000000       0.00000000       0.00000000       0.00000000       0.00000000       0.00000000
H        2.80615512       1.62013441      22.29121606        2       1.00000000       0.00000000       0.00000000       0.00000000       0.00000000       0.00000000       0.00000000
H        1.40307756       4.05033604      22.29121606        2       1.00000000       0.00000000       0.00000000       0.00000000       0.00000000       0.00000000       0.00000000
H        4.20923268       4.05033604      22.29121606        2       1.00000000       0.00000000       0.00000000       0.00000000       0.00000000       0.00000000       0.00000000
H        0.00000000       0.00000000      24.58243212        1       1.00000000       0.00000000       0.00000000       0.00000000       0.00000000       0.00000000       0.00000000
H        2.80615512       0.00000000      24.58243212        1       1.00000000       0.00000000       0.00000000       0.00000000       0.00000000       0.00000000       0.00000000
H        1.40307756       2.43020162      24.58243212        1       1.00000000       0.00000000       0.00000000       0.00000000       0.00000000       0.00000000       0.00000000
H        4.20923268       2.43020162      24.58243212        1       1.00000000       0.00000000       0.00000000       0.00000000       0.00000000       0.00000000       0.00000000
H        2.49866438       1.02944161      32.31197106        0       1.00000000       0.32997344      -0.13364407      -0.02794853       0.02542965      -0.47841357      -0.39972053
H        4.12879453       3.12966077      30.90991453        0       1.00000000      -0.32826179       0.15821207       0.07233190       0.69329100       0.06296832       0.22473548
H        3.28628469       0.63107552      29.94638676        0       1.00000000       0.29435610      -0.06984633      -0.08941902       0.58538953       0.05074338      -0.00043542
H        0.21563271      -0.01386720      29.15829298        0       1.00000000       0.27614052       0.24096325       0.27589997       0.14896317      -0.99500949       0.48320533
H        4.94519436       2.56290979      28.00422242        0       1.00000000      -0.09122571      -0.46632244       0.09096410      -0.06783540       0.35956079       0.01589647
H        5.20180036       0.43247275      32.03989448        0       1.00000000       0.02023484       0.43005647      -0.09498134      -1.50912749      -0.25135466       0.83283515
H        1.23626849       4.50568216      26.81118105        0       1.00000000      -0.45240809       0.52153798       0.12669046       0.00299857      -0.02016760      -0.31264480
H        2.37574955       2.03337044      27.01502613        0       1.00000000      -0.08084086      -0.27204118      -0.40431874      -0.32735227       0.73869192       0.06479972
H        1.64156291       3.11734844      31.15742204        0       1.00000000      -0.11069371      -0.35371923      -0.43020886       0.22959946       0.69474337      -0.54730161
H        4.23478009       5.05691503      26.99869411        0       1.00000000       0.14670006       0.38221682       0.21480963      -0.02265673       0.01257874      -0.27875623
22
Lattice="5.612310241546866 0.0 0.0 0.0 4.860403243099165 0.0 0.0 0.0 44.58243212332868" Properties=species:S:1:pos:R:3:tags:I:1:masses:R:1:momenta:R:3:forces:R:3 KEmax=28.4371901128168 iter=24817 volume=1216.1236359717223 set_wall=T ns_energy=-11.608789917390636 last_walked_iter_clone=24196 energy=-12.59067480796669 stress="0.012496347844706586 0.002940761171623873 -0.0011346246404608763 0.002940761171623873 0.005633231298792062 0.0010053390714683571 -0.0011346246404608763 0.0010053390714683571 0.0171959888943952" pbc="T T F"
H        1.40307756       0.81006721      20.00000000        3       1.00000000       0.00000000       0.00000000       0.00000000       0.00000000       0.00000000       0.00000000
H        4.20923268       0.81006721      20.00000000        3       1.00000000       0.00000000       0.00000000       0.00000000       0.00000000       0.00000000       0.00000000
H        0.00000000       3.24026883      20.00000000        3       1.00000000       0.00000000       0.00000000       0.00000000       0.00000000       0.00000000       0.00000000
H        2.80615512       3.24026883      20.00000000        3       1.00000000       0.00000000       0.00000000       0.00000000       0.00000000       0.00000000       0.00000000
H        0.00000000       1.62013441      22.29121606        2       1.00000000       0.00000000       0.00000000       0.00000000       0.00000000       0.00000000       0.00000000
H        2.80615512       1.62013441      22.29121606        2       1.00000000       0.00000000       0.00000000       0.00000000       0.00000000       0.00000000       0.00000000
H        1.40307756       4.05033604      22.29121606        2       1.00000000       0.00000000       0.00000000       0.00000000       0.00000000       0.00000000       0.00000000
H        4.20923268       4.05033604      22.29121606        2       1.00000000       0.00000000       0.00000000       0.00000000       0.00000000       0.00000000       0.00000000
H        0.00000000       0.00000000      24.58243212        1       1.00000000       0.00000000       0.00000000       0.00000000       0.00000000       0.00000000       0.00000000
H        2.80615512       0.00000000      24.58243212        1       1.00000000       0.00000000       0.00000000       0.00000000       0.00000000       0.00000000       0.00000000
H        1.40307756       2.43020162      24.58243212        1       1.00000000       0.00000000       0.00000000       0.00000000       0.00000000       0.00000000       0.00000000
H        4.20923268       2.43020162      24.58243212        1       1.00000000       0.00000000       0.00000000       0.00000000       0.00000000       0.00000000       0.00000000
H        3.24449189       0.49760980      31.82343786        0       1.00000000       0.30652603       0.58016999       0.04055946       0.02542965      -0.47841357      -0.39972053
H        3.71757087       0.91315125      26.64240450        0       1.00000000      -0.34548239       0.10215870      -0.35853472       0.69329100       0.06296832       0.22473548
H        5.38907168       3.02078196      27.63583997        0       1.00000000      -0.23119567      -0.21367008      -0.05895967       0.58538953       0.05074338      -0.00043542
H        3.77992878       3.24282367      30.24299011        0       1.00000000       0.29194164      -0.66295685      -0.29444789       0.14896317      -0.99500949       0.48320533
H        2.45122673       3.24807306      27.64344176        0       1.00000000       0.04709827       0.40616503      -0.28837583      -0.06783540       0.35956079       0.01589647
H        0.10467808       4.80764362      32.00853183        0       1.00000000      -0.28336130      -0.00589533      -0.33775756      -1.50912749      -0.25135466       0.83283515
H        4.66759590       0.46981132      29.32856748        0       1.00000000       0.10822041       0.10978669      -0.26660200       0.00299857      -0.02016760      -0.31264480
H        1.84093361       1.06570283      29.09884605        0       1.00000000      -0.17906353       0.19697538       0.32096626      -0.32735227       0.73869192       0.06479972
H        0.98100810       0.43660588      26.75483825        0       1.00000000      -0.07673493      -0.12143598       0.15072076       0.22959946       0.69474337      -0.54730161
H        1.09438188       2.35994441      31.13868416        0       1.00000000       0.00807150       0.29371609      -0.28023756      -0.02265673       0.01257874      -0.27875623
22
Lattice="5.612310241546866 0.0 0.0 0.0 4.860403243099165 0.0 0.0 0.0 44.58243212332868" Properties=species:S:1:pos:R:3:tags:I:1:masses:R:1:momenta:R:3:forces:R:3 KEmax=28.4371901128168 iter=24817 volume=1216.1236359717223 set_wall=T ns_energy=-11.700755159938563 last_walked_iter_clone=24481 energy=-12.59067480796669 stress="0.012496347844706586 0.002940761171623873 -0.0011346246404608763 0.002940761171623873 0.005633231298792062 0.0010053390714683571 -0.0011346246404608763 0.0010053390714683571 0.0171959888943952" pbc="T T F"
H        1.40307756       0.81006721      20.00000000        3       1.00000000       0.00000000       0.00000000       0.00000000       0.00000000       0.00000000       0.00000000
H        4.20923268       0.81006721      20.00000000        3       1.00000000       0.00000000       0.00000000       0.00000000       0.00000000       0.00000000       0.00000000
H        0.00000000       3.24026883      20.00000000        3       1.00000000       0.00000000       0.00000000       0.00000000       0.00000000       0.00000000       0.00000000
H        2.80615512       3.24026883      20.00000000        3       1.00000000       0.00000000       0.00000000       0.00000000       0.00000000       0.00000000       0.00000000
H        0.00000000       1.62013441      22.29121606        2       1.00000000       0.00000000       0.00000000       0.00000000       0.00000000       0.00000000       0.00000000
H        2.80615512       1.62013441      22.29121606        2       1.00000000       0.00000000       0.00000000       0.00000000       0.00000000       0.00000000       0.00000000
H        1.40307756       4.05033604      22.29121606        2       1.00000000       0.00000000       0.00000000       0.00000000       0.00000000       0.00000000       0.00000000
H        4.20923268       4.05033604      22.29121606        2       1.00000000       0.00000000       0.00000000       0.00000000       0.00000000       0.00000000       0.00000000
H        0.00000000       0.00000000      24.58243212        1       1.00000000       0.00000000       0.00000000       0.00000000       0.00000000       0.00000000       0.00000000
H        2.80615512       0.00000000      24.58243212        1       1.00000000       0.00000000       0.00000000       0.00000000       0.00000000       0.00000000       0.00000000
H        1.40307756       2.43020162      24.58243212        1       1.00000000       0.00000000       0.00000000       0.00000000       0.00000000       0.00000000       0.00000000
H        4.20923268       2.43020162      24.58243212        1       1.00000000       0.00000000       0.00000000       0.00000000       0.00000000       0.00000000       0.00000000
H        0.57865822      -0.33274741      31.06705731        0       1.00000000       0.56681393      -0.27219828      -0.32197427       0.02542965      -0.47841357      -0.39972053
H        3.17923749       1.59560703      30.59850682        0       1.00000000      -0.01945806       0.00715667       0.30197716       0.69329100       0.06296832       0.22473548
H        3.01363529       3.97240670      29.56644183        0       1.00000000      -0.25997532      -0.02063681       0.12490165       0.58538953       0.05074338      -0.00043542
H        5.56464916       2.25325541      29.87405071        0       1.00000000       0.33842707      -0.54047886       0.04940954       0.14896317      -0.99500949       0.48320533
H        1.65653552       3.75290413      27.02966413        0       1.00000000       0.27176893      -0.11614831      -0.12755625      -0.06783540       0.35956079       0.01589647
H        4.19508718       0.45997385      32.69716602        0       1.00000000      -0.06874448      -0.51540845      -0.05802301      -1.50912749      -0.25135466       0.83283515
H        3.26295432       1.23379354      27.62950059        0       1.00000000       0.45378253      -0.06691584      -0.04649946       0.00299857      -0.02016760      -0.31264480
H        4.60961453       3.94296776      27.08383887        0       1.00000000      -0.05629421       0.00801896       0.35696556      -0.32735227       0.73869192       0.06479972
H        1.37421891       2.34260809      32.26804764        0       1.00000000      -0.38693433       0.12637985       0.17359019       0.22959946       0.69474337      -0.54730161
H        0.36592258       1.31528709      26.97167461        0       1.00000000      -0.15677814       0.27704164      -0.40445951      -0.02265673       0.01257874      -0.27875623
22
Lattice="5.612310241546866 0.0 0.0 0.0 4.860403243099165 0.0 0.0 0.0 44.58243212332868" Properties=species:S:1:pos:R:3:tags:I:1:masses:R:1:momenta:R:3:forces:R:3 KEmax=28.4371901128168 iter=24817 volume=1216.1236359717223 set_wall=T ns_energy=-11.690881380755851 last_walked_iter_clone=24641 energy=-12.59067480796669 stress="0.012496347844706586 0.002940761171623873 -0.0011346246404608763 0.002940761171623873 0.005633231298792062 0.0010053390714683571 -0.0011346246404608763 0.0010053390714683571 0.0171959888943952" pbc="T T F"
H        1.40307756       0.81006721      20.00000000        3       1.00000000       0.00000000       0.00000000       0.00000000       0.00000000       0.00000000       0.00000000
H        4.20923268       0.81006721      20.00000000        3       1.00000000       0.00000000       0.00000000       0.00000000       0.00000000       0.00000000       0.00000000
H        0.00000000       3.24026883      20.00000000        3       1.00000000       0.00000000       0.00000000       0.00000000       0.00000000       0.00000000       0.00000000
H        2.80615512       3.24026883      20.00000000        3       1.00000000       0.00000000       0.00000000       0.00000000       0.00000000       0.00000000       0.00000000
H        0.00000000       1.62013441      22.29121606        2       1.00000000       0.00000000       0.00000000       0.00000000       0.00000000       0.00000000       0.00000000
H        2.80615512       1.62013441      22.29121606        2       1.00000000       0.00000000       0.00000000       0.00000000       0.00000000       0.00000000       0.00000000
H        1.40307756       4.05033604      22.29121606        2       1.00000000       0.00000000       0.00000000       0.00000000       0.00000000       0.00000000       0.00000000
H        4.20923268       4.05033604      22.29121606        2       1.00000000       0.00000000       0.00000000       0.00000000       0.00000000       0.00000000       0.00000000
H        0.00000000       0.00000000      24.58243212        1       1.00000000       0.00000000       0.00000000       0.00000000       0.00000000       0.00000000       0.00000000
H        2.80615512       0.00000000      24.58243212        1       1.00000000       0.00000000       0.00000000       0.00000000       0.00000000       0.00000000       0.00000000
H        1.40307756       2.43020162      24.58243212        1       1.00000000       0.00000000       0.00000000       0.00000000       0.00000000       0.00000000       0.00000000
H        4.20923268       2.43020162      24.58243212        1       1.00000000       0.00000000       0.00000000       0.00000000       0.00000000       0.00000000       0.00000000