18
Lattice="5.612310241546866 0.0 0.0 0.0 4.860403243099165 0.0 0.0 0.0 44.58243212332868" Properties=species:S:1:pos:R:3:tags:I:1:masses:R:1:momenta:R:3:forces:R:3 KEmax=23.26679191048647 iter=100127 volume=1216.1236359717223 set_wall=T ns_energy=-11.645792728002787 last_walked_iter_clone=100079 energy=-11.645792729750774 stress="0.022426901542875674 2.780706866502876e-07 3.759349485969083e-07 2.780706866502876e-07 0.02240810783889231 2.0582002472921687e-07 3.759349485969083e-07 2.0582002472921687e-07 0.011573238279881838" pbc="T T F"
H        1.40307756       0.81006721      20.00000000        3       1.00000000       0.00000000       0.00000000       0.00000000       0.00000000       0.00000000       0.00000000
H        4.20923268       0.81006721      20.00000000        3       1.00000000       0.00000000       0.00000000       0.00000000       0.00000000       0.00000000       0.00000000
H        0.00000000       3.24026883      20.00000000        3       1.00000000       0.00000000       0.00000000       0.00000000       0.00000000       0.00000000       0.00000000
H        2.80615512       3.24026883      20.00000000        3       1.00000000       0.00000000       0.00000000       0.00000000       0.00000000       0.00000000       0.00000000
H        0.00000000       1.62013441      22.29121606        2       1.00000000       0.00000000       0.00000000       0.00000000       0.00000000       0.00000000       0.00000000
H        2.80615512       1.62013441      22.29121606        2       1.00000000       0.00000000       0.00000000       0.00000000       0.00000000       0.00000000       0.00000000
H        1.40307756       4.05033604      22.29121606        2       1.00000000       0.00000000       0.00000000       0.00000000       0.00000000       0.00000000       0.00000000
H        4.20923268       4.05033604      22.29121606        2       1.00000000       0.00000000       0.00000000       0.00000000       0.00000000       0.00000000       0.00000000
H        0.00000000       0.00000000      24.58243212        1       1.00000000       0.00000000       0.00000000       0.00000000       0.00000000       0.00000000       0.00000000
H        2.80615512       0.00000000      24.58243212        1       1.00000000       0.00000000       0.00000000       0.00000000       0.00000000       0.00000000       0.00000000
H        1.40307756       2.43020162      24.58243212        1       1.00000000       0.00000000       0.00000000       0.00000000       0.00000000       0.00000000       0.00000000
H        4.20923268       2.43020162      24.58243212        1       1.00000000       0.00000000       0.00000000       0.00000000       0.00000000       0.00000000       0.00000000
H        2.80235522       3.22726395      26.78880687        0       1.00000000      -0.00000619      -0.00000795      -0.00001161       0.00000222      -0.00004919       0.00001723
H        1.39277035       0.82466055      26.81308645        0       1.00000000       0.00000735       0.00002138       0.00000148       0.00001419      -0.00000804      -0.00000562
H        4.21548433       2.41094259      29.01622098        0       1.00000000      -0.00002082      -0.00000368       0.00001912       0.00001061      -0.00000713      -0.00001526
H        0.01029934       3.25485868      26.81310032        0       1.00000000       0.00000388      -0.00002798       0.00003004      -0.00003996       0.00000147       0.00003205
H        4.21302130       0.79704753      26.78878794        0       1.00000000       0.00000120       0.00000818       0.00000118      -0.00002564       0.00003573      -0.00000849
H        2.79987610       4.84115873      29.01621922        0       1.00000000       0.00001368       0.00000775      -0.00000337      -0.00000681       0.00000161       0.00000895
18
Lattice="5.612310241546866 0.0 0.0 0.0 4.860403243099165 0.0 0.0 0.0 44.58243212332868" Properties=species:S:1:pos:R:3:tags:I:1:masses:R:1:momenta:R:3:forces:R:3 KEmax=23.26679191048647 iter=100127 volume=1216.1236359717223 set_wall=T ns_energy=-11.64579272795654 last_walked_iter_clone=99925 energy=-11.645792729750774 stress="0.022426901542875674 2.780706866502876e-07 3.759349485969083e-07 2.780706866502876e-07 0.02240810783889231 2.0582002472921687e-07 3.759349485969083e-07 2.0582002472921687e-07 0.011573238279881838" pbc="T T F"
H        1.40307756       0.81006721      20.00000000        3       1.00000000       0.00000000       0.00000000       0.00000000       0.00000000       0.00000000       0.00000000
H        4.20923268       0.81006721      20.00000000        3       1.00000000       0.00000000       0.00000000       0.00000000       0.00000000       0.00000000       0.00000000
H        0.00000000       3.24026883      20.00000000        3       1.00000000       0.00000000       0.00000000       0.00000000       0.00000000       0.00000000       0.00000000
H        2.80615512       3.24026883      20.00000000        3       1.00000000       0.00000000       0.00000000       0.00000000       0.00000000       0.00000000       0.00000000
H        0.00000000       1.62013441      22.29121606        2       1.00000000       0.00000000       0.00000000       0.00000000       0.00000000       0.00000000       0.00000000
H        2.80615512       1.62013441      22.29121606        2       1.00000000       0.00000000       0.00000000       0.00000000       0.00000000       0.00000000       0.00000000
H        1.40307756       4.05033604      22.29121606        2       1.00000000       0.00000000       0.00000000       0.00000000       0.00000000       0.00000000       0.00000000
H        4.20923268       4.05033604      22.29121606        2       1.00000000       0.00000000       0.00000000       0.00000000       0.00000000       0.00000000       0.00000000
H        0.00000000       0.00000000      24.58243212        1       1.00000000       0.00000000       0.00000000       0.00000000       0.00000000       0.00000000       0.00000000
H        2.80615512       0.00000000      24.58243212        1       1.00000000       0.00000000       0.00000000       0.00000000       0.00000000       0.00000000       0.00000000
H        1.40307756       2.43020162      24.58243212        1       1.00000000       0.00000000       0.00000000       0.00000000       0.00000000       0.00000000       0.00000000
H        4.20923268       2.43020162      24.58243212        1       1.00000000       0.00000000       0.00000000       0.00000000       0.00000000       0.00000000       0.00000000
H        2.80236700       3.22724588      26.78879838        0       1.00000000       0.00000146      -0.00000627      -0.00002857       0.00000222      -0.00004919       0.00001723
H        1.39277402       0.82465059      26.81308098        0       1.00000000      -0.00001350       0.00001108      -0.00000881       0.00001419      -0.00000804      -0.00000562
H        4.21549557       2.41091920      29.01622353        0       1.00000000      -0.00002152       0.00001888       0.00000027       0.00001061      -0.00000713      -0.00001526
H        0.01030803       3.25485363      26.81308947        0       1.00000000      -0.00001086       0.00000313       0.00001949      -0.00003996       0.00000147       0.00003205
H        4.21303206       0.79702580      26.78880421        0       1.00000000       0.00000539      -0.00001866      -0.00002542      -0.00002564       0.00003573      -0.00000849
H        2.79987350       4.84113224      29.01622231        0       1.00000000       0.00000144      -0.00002868      -0.00000226      -0.00000681       0.00000161       0.00000895
18
Lattice="5.612310241546866 0.0 0.0 0.0 4.860403243099165 0.0 0.0 0.0 44.58243212332868" Properties=species:S:1:pos:R:3:tags:I:1:masses:R:1:momenta:R:3:forces:R:3 KEmax=23.26679191048647 iter=100127 volume=1216.1236359717223 set_wall=T ns_energy=-11.64579272795204 last_walked_iter_clone=100072 energy=-11.645792729750774 stress="0.022426901542875674 2.780706866502876e-07 3.759349485969083e-07 2.780706866502876e-07 0.02240810783889231 2.0582002472921687e-07 3.759349485969083e-07 2.0582002472921687e-07 0.011573238279881838" pbc="T T F"
H        1.40307756       0.81006721      20.00000000        3       1.00000000       0.00000000       0.00000000       0.00000000       0.00000000       0.00000000       0.00000000
H        4.20923268       0.81006721      20.00000000        3       1.00000000       0.00000000       0.00000000       0.00000000       0.00000000       0.00000000       0.00000000
H        0.00000000       3.24026883      20.00000000        3       1.00000000       0.00000000       0.00000000       0.00000000       0.00000000       0.00000000       0.00000000
H        2.80615512       3.24026883      20.00000000        3       1.00000000       0.00000000       0.00000000       0.00000000       0.00000000       0.00000000       0.00000000
H        0.00000000       1.62013441      22.29121606        2       1.00000000       0.00000000       0.00000000       0.00000000       0.00000000       0.00000000       0.00000000
H        2.80615512       1.62013441      22.29121606        2       1.00000000       0.00000000       0.00000000       0.00000000       0.00000000       0.00000000       0.00000000
H        1.40307756       4.05033604      22.29121606        2       1.00000000       0.00000000       0.00000000       0.00000000       0.00000000       0.00000000       0.00000000
H        4.20923268       4.05033604      22.29121606        2       1.00000000       0.00000000       0.00000000       0.00000000       0.00000000       0.00000000       0.00000000
H        0.00000000       0.00000000      24.58243212        1       1.00000000       0.00000000       0.00000000       0.00000000       0.00000000       0.00000000       0.00000000
H        2.80615512       0.00000000      24.58243212        1       1.00000000       0.00000000       0.00000000       0.00000000       0.00000000       0.00000000       0.00000000
H        1.40307756       2.43020162      24.58243212        1       1.00000000       0.00000000       0.00000000       0.00000000       0.00000000       0.00000000       0.00000000
H        4.20923268       2.43020162      24.58243212        1       1.00000000       0.00000000       0.00000000       0.00000000       0.00000000       0.00000000       0.00000000
H        2.80235625       3.22725828      26.78880365        0       1.00000000       0.00001996       0.00001186      -0.00001123       0.00000222      -0.00004919       0.00001723
H        1.39275678       0.82468151      26.81308924        0       1.00000000      -0.00000227       0.00001104      -0.00000025       0.00001419      -0.00000804      -0.00000562
H        4.21550772       2.41095577      29.01621686        0       1.00000000       0.00000690      -0.00002262       0.00000375       0.00001061      -0.00000713      -0.00001526
H        0.01029371       3.25486095      26.81306140        0       1.00000000      -0.00000077      -0.00001071      -0.00000863      -0.00003996       0.00000147       0.00003205
H        4.21302737       0.79704351      26.78879778        0       1.00000000      -0.00001571      -0.00000258      -0.00000131      -0.00002564       0.00003573      -0.00000849
H        2.79988315       4.84116370      29.01622635        0       1.00000000       0.00002150      -0.00002403      -0.00000424      -0.00000681       0.00000161       0.00000895
18
Lattice="5.612310241546866 0.0 0.0 0.0 4.860403243099165 0.0 0.0 0.0 44.58243212332868" Properties=species:S:1:pos:R:3:tags:I:1:masses:R:1:momenta:R:3:forces:R:3 KEmax=23.26679191048647 iter=100127 volume=1216.1236359717223 set_wall=T ns_energy=-11.645792727957929 last_walked_iter_clone=99996 energy=-11.645792729750774 stress="0.022426901542875674 2.780706866502876e-07 3.759349485969083e-07 2.780706866502876e-07 0.02240810783889231 2.0582002472921687e-07 3.759349485969083e-07 2.0582002472921687e-07 0.011573238279881838" pbc="T T F"
H        1.40307756       0.81006721      20.00000000        3       1.00000000       0.00000000       0.00000000       0.00000000       0.00000000       0.00000000       0.00000000
H        4.20923268       0.81006721      20.00000000        3       1.00000000       0.00000000       0.00000000       0.00000000       0.00000000       0.00000000       0.00000000
H        0.00000000       3.24026883      20.00000000        3       1.00000000       0.00000000       0.00000000       0.00000000       0.00000000       0.00000000       0.00000000
H        2.80615512       3.24026883      20.00000000        3       1.00000000       0.00000000       0.00000000       0.00000000       0.00000000       0.00000000       0.00000000
H        0.00000000       1.62013441      22.29121606        2       1.00000000       0.00000000       0.00000000       0.00000000       0.00000000       0.00000000       0.00000000
H        2.80615512       1.62013441      22.29121606        2       1.00000000       0.00000000       0.00000000       0.00000000       0.00000000       0.00000000       0.00000000
H        1.40307756       4.05033604      22.29121606        2       1.00000000       0.00000000       0.00000000       0.00000000       0.00000000       0.00000000       0.00000000
H        4.20923268       4.05033604      22.29121606        2       1.00000000       0.00000000       0.00000000       0.00000000       0.00000000       0.00000000       0.00000000
H        0.00000000       0.00000000      24.58243212        1       1.00000000       0.00000000       0.00000000       0.00000000       0.00000000       0.00000000       0.00000000
H        2.80615512       0.00000000      24.58243212        1       1.00000000       0.00000000       0.00000000       0.00000000       0.00000000       0.00000000       0.00000000
H        1.40307756       2.43020162      24.58243212        1       1.00000000       0.00000000       0.00000000       0.00000000       0.00000000       0.00000000       0.00000000
H        4.20923268       2.43020162      24.58243212        1       1.00000000       0.00000000       0.00000000       0.00000000       0.00000000       0.00000000       0.00000000
H        2.80235304       3.22726429      26.78881678        0       1.00000000       0.00001231       0.00000018       0.00002045       0.00000222      -0.00004919       0.00001723
H        1.39276230       0.82465983      26.81308372        0       1.00000000       0.00001481       0.00000938       0.00001616       0.00001419      -0.00000804      -0.00000562
H        4.21551722       2.41097448      29.01622645        0       1.00000000       0.00000577       0.00001004      -0.00000557       0.00001061      -0.00000713      -0.00001526
H        0.01030627       3.25488427      26.81307576        0       1.00000000      -0.00000628      -0.00000192       0.00000376      -0.00003996       0.00000147       0.00003205
H        4.21302244       0.79705879      26.78880398        0       1.00000000      -0.00003513       0.00000229       0.00001219      -0.00002564       0.00003573      -0.00000849
H        2.79990627       4.84117030      29.01622768        0       1.00000000      -0.00001256      -0.00000432      -0.00001606      -0.00000681       0.00000161       0.00000895
18
Lattice="5.612310241546866 0.0 0.0 0.0 4.860403243099165 0.0 0.0 0.0 44.58243212332868" Properties=species:S:1:pos:R:3:tags:I:1:masses:R:1:momenta:R:3:forces:R:3 KEmax=23.26679191048647 iter=100127 volume=1216.1236359717223 set_wall=T ns_energy=-11.645792727994765 last_walked_iter_clone=99969 energy=-11.645792729750774 stress="0.022426901542875674 2.780706866502876e-07 3.759349485969083e-07 2.780706866502876e-07 0.02240810783889231 2.0582002472921687e-07 3.759349485969083e-07 2.0582002472921687e-07 0.011573238279881838" pbc="T T F"
H        1.40307756       0.81006721      20.00000000        3       1.00000000       0.00000000       0.00000000       0.00000000       0.00000000       0.00000000       0.00000000
H        4.20923268       0.81006721      20.00000000        3       1.00000000       0.00000000       0.00000000       0.00000000       0.00000000       0.00000000       0.00000000
H        0.00000000       3.24026883      20.00000000        3       1.00000000       0.00000000       0.00000000       0.00000000       0.00000000       0.00000000       0.00000000
H        2.80615512       3.24026883      20.00000000        3       1.00000000       0.00000000       0.00000000       0.00000000       0.00000000       0.00000000       0.00000000
H        0.00000000       1.62013441      22.29121606        2       1.00000000       0.00000000       0.00000000       0.00000000       0.00000000       0.00000000       0.00000000
H        2.80615512       1.62013441      22.29121606        2       1.00000000       0.00000000       0.00000000       0.00000000       0.00000000       0.00000000       0.00000000
H        1.40307756       4.05033604      22.29121606        2       1.00000000       0.00000000       0.00000000       0.00000000       0.00000000       0.00000000       0.00000000
H        4.20923268       4.05033604      22.29121606        2       1.00000000       0.00000000       0.00000000       0.00000000       0.00000000       0.00000000       0.00000000
H        0.00000000       0.00000000      24.58243212        1       1.00000000       0.00000000       0.00000000       0.00000000       0.00000000       0.00000000       0.00000000
H        2.80615512       0.00000000      24.58243212        1       1.00000000       0.00000000       0.00000000       0.00000000       0.00000000       0.00000000       0.00000000
H        1.40307756       2.43020162      24.58243212        1       1.00000000       0.00000000       0.00000000       0.00000000       0.00000000       0.00000000       0.00000000
H        4.20923268       2.43020162      24.58243212        1       1.00000000       0.00000000       0.00000000       0.00000000       0.00000000       0.00000000       0.00000000
H        2.80235118       3.22726111      26.78879339        0       1.00000000       0.00001183       0.00001801       0.00001393       0.00000222      -0.00004919       0.00001723
H        1.39278208       0.82466760      26.81309273        0       1.00000000      -0.00000530      -0.00001554      -0.00001157       0.00001419      -0.00000804      -0.00000562
H        4.21549360       2.41096289      29.01621389        0       1.00000000      -0.00001114      -0.00000557       0.00000925       0.00001061      -0.00000713      -0.00001526
H        0.01030790       3.25488777      26.81309097        0       1.00000000      -0.00000485       0.00001050      -0.00000426      -0.00003996       0.00000147       0.00003205
H        4.21302004       0.79705425      26.78880247        0       1.00000000       0.00001008       0.00000930      -0.00000468      -0.00002564       0.00003573      -0.00000849
H        2.79990611       4.84116235      29.01622536        0       1.00000000       0.00000966      -0.00001092       0.00003274      -0.00000681       0.00000161       0.00000895
18
Lattice="5.612310241546866 0.0 0.0 0.0 4.860403243099165 0.0 0.0 0.0 44.58243212332868" Properties=species:S:1:pos:R:3:tags:I:1:masses:R:1:momenta:R:3:forces:R:3 KEmax=23.26679191048647 iter=100127 volume=1216.1236359717223 set_wall=T ns_energy=-11.645792728001476 last_walked_iter_clone=100065 energy=-11.645792729750774 stress="0.022426901542875674 2.780706866502876e-07 3.759349485969083e-07 2.780706866502876e-07 0.02240810783889231 2.0582002472921687e-07 3.759349485969083e-07 2.0582002472921687e-07 0.011573238279881838" pbc="T T F"
H        1.40307756       0.81006721      20.00000000        3       1.00000000       0.00000000       0.00000000       0.00000000       0.00000000       0.00000000       0.00000000
H        4.20923268       0.81006721      20.00000000        3       1.00000000       0.00000000       0.00000000       0.00000000       0.00000000       0.00000000       0.00000000
H        0.00000000       3.24026883      20.00000000        3       1.00000000       0.00000000       0.00000000       0.00000000       0.00000000       0.00000000       0.00000000
H        2.80615512       3.24026883      20.00000000        3       1.00000000       0.00000000       0.00000000       0.00000000       0.00000000       0.00000000       0.00000000
H        0.00000000       1.62013441      22.29121606        2       1.00000000       0.00000000       0.00000000       0.00000000       0.00000000       0.00000000       0.00000000
H        2.80615512       1.62013441      22.29121606        2       1.00000000       0.00000000       0.00000000       0.00000000       0.00000000       0.00000000       0.00000000
H        1.40307756       4.05033604      22.29121606        2       1.00000000       0.00000000       0.00000000       0.00000000       0.00000000       0.00000000       0.00000000
H        4.20923268       4.05033604      22.29121606        2       1.00000000       0.00000000       0.00000000       0.00000000       0.00000000       0.00000000       0.00000000
H        0.00000000       0.00000000      24.58243212        1       1.00000000       0.00000000       0.00000000       0.00000000       0.00000000       0.00000000       0.00000000
H        2.80615512       0.00000000      24.58243212        1       1.00000000       0.00000000       0.00000000       0.00000000       0.00000000       0.00000000       0.00000000
H        1.40307756       2.43020162      24.58243212        1       1.00000000       0.00000000       0.00000000       0.00000000       0.00000000       0.00000000       0.00000000
H        4.20923268       2.43020162      24.58243212        1       1.00000000       0.00000000       0.00000000       0.00000000       0.00000000       0.00000000       0.00000000
H        2.80236922       3.22724793      26.78878590        0       1.00000000      -0.00000645      -0.00000724       0.00003085       0.00000222      -0.00004919       0.00001723
H        1.39278576       0.82466916      26.81307898        0       1.00000000      -0.00000518       0.00000944      -0.00000183       0.00001419      -0.00000804      -0.00000562
H        4.21549860       2.41093992      29.01619556        0       1.00000000       0.00001609       0.00001642       0.00000786       0.00001061      -0.00000713      -0.00001526
H        0.01031017       3.25485116      26.81307336        0       1.00000000      -0.00000239       0.00001145       0.00000789      -0.00003996       0.00000147       0.00003205
H        4.21304535       0.79703294      26.78879002        0       1.00000000       0.00001798      -0.00000044      -0.00000598      -0.00002564       0.00003573      -0.00000849
H        2.79988485       4.84114357      29.01621669        0       1.00000000       0.00000243      -0.00001981      -0.00001225      -0.00000681       0.00000161       0.00000895
18
Lattice="5.612310241546866 0.0 0.0 0.0 4.860403243099165 0.0 0.0 0.0 44.58243212332868" Properties=species:S:1:pos:R:3:tags:I:1:masses:R:1:momenta:R:3:forces:R:3 KEmax=23.26679191048647 iter=100127 volume=1216.1236359717223 set_wall=T ns_energy=-11.645792728063656 last_walked_iter_clone=99864 energy=-11.645792729750774 stress="0.022426901542875674 2.780706866502876e-07 3.759349485969083e-07 2.780706866502876e-07 0.02240810783889231 2.0582002472921687e-07 3.759349485969083e-07 2.0582002472921687e-07 0.011573238279881838" pbc="T T F"
H        1.40307756       0.81006721      20.00000000        3       1.00000000       0.00000000       0.00000000       0.00000000       0.00000000       0.00000000       0.00000000
H        4.20923268       0.81006721      20.00000000        3       1.00000000       0.00000000       0.00000000       0.00000000       0.00000000       0.00000000       0.00000000
H        0.00000000       3.24026883      20.00000000        3       1.00000000       0.00000000       0.00000000       0.00000000       0.00000000       0.00000000       0.00000000
H        2.80615512       3.24026883      20.00000000        3       1.00000000       0.00000000       0.00000000       0.00000000       0.00000000       0.00000000       0.00000000
H        0.00000000       1.62013441      22.29121606        2       1.00000000       0.00000000       0.00000000       0.00000000       0.00000000       0.00000000       0.00000000
H        2.80615512       1.62013441      22.29121606        2       1.00000000       0.00000000       0.00000000       0.00000000       0.00000000       0.00000000       0.00000000
H        1.40307756       4.05033604      22.29121606        2       1.00000000       0.00000000       0.00000000       0.00000000       0.00000000       0.00000000       0.00000000
H        4.20923268       4.05033604      22.29121606        2       1.00000000       0.00000000       0.00000000       0.00000000       0.00000000       0.00000000       0.00000000
H        0.00000000       0.00000000      24.58243212        1       1.00000000       0.00000000       0.00000000       0.00000000       0.00000000       0.00000000       0.00000000
H        2.80615512       0.00000000      24.58243212        1       1.00000000       0.00000000       0.00000000       0.00000000       0.00000000       0.00000000       0.00000000
H        1.40307756       2.43020162      24.58243212        1       1.00000000       0.00000000       0.00000000       0.00000000       0.00000000       0.00000000       0.00000000
H        4.20923268       2.43020162      24.58243212        1       1.00000000       0.00000000       0.00000000       0.00000000       0.00000000       0.00000000       0.00000000
H        2.80235040       3.22723885      26.78879822        0       1.00000000      -0.00001813       0.00000761       0.00000517       0.00000222      -0.00004919       0.00001723
H        1.39276204       0.82465332      26.81309226        0       1.00000000      -0.00001593       0.00000876      -0.00001667       0.00001419      -0.00000804      -0.00000562
H        4.21551457       2.41094772      29.01622264        0       1.00000000       0.00001203      -0.00000640      -0.00001397       0.00001061      -0.00000713      -0.00001526
H        0.01030066       3.25486349      26.81308808        0       1.00000000       0.00001730       0.00001840       0.00001911      -0.00003996       0.00000147       0.00003205
H        4.21301271       0.79704139      26.78881714        0       1.00000000      -0.00000378      -0.00000412      -0.00000314      -0.00002564       0.00003573      -0.00000849
H        2.79986800       4.84115301      29.01621443        0       1.00000000       0.00000643      -0.00001327       0.00000427      -0.00000681       0.00000161       0.00000895
18
Lattice="5.612310241546866 0.0 0.0 0.0 4.860403243099165 0.0 0.0 0.0 44.58243212332868" Properties=species:S:1:pos:R:3:tags:I:1:masses:R:1:momenta:R:3:forces:R:3 KEmax=23.26679191048647 iter=100127 volume=1216.1236359717223 set_wall=T ns_energy=-11.645792728015833 last_walked_iter_clone=100047 energy=-11.645792729750774 stress="0.022426901542875674 2.780706866502876e-07 3.759349485969083e-07 2.780706866502876e-07 0.02240810783889231 2.0582002472921687e-07 3.759349485969083e-07 2.0582002472921687e-07 0.011573238279881838" pbc="T T F"
H        1.40307756       0.81006721      20.00000000        3       1.00000000       0.00000000       0.00000000       0.00000000       0.00000000       0.00000000       0.00000000
H        4.20923268       0.81006721      20.00000000        3       1.00000000       0.00000000       0.00000000       0.00000000       0.00000000       0.00000000       0.00000000
H        0.00000000       3.24026883      20.00000000        3       1.00000000       0.00000000       0.00000000       0.00000000       0.00000000       0.00000000       0.00000000
H        2.80615512       3.24026883      20.00000000        3       1.00000000       0.00000000       0.00000000       0.00000000       0.00000000       0.00000000       0.00000000
H        0.00000000       1.62013441      22.29121606        2       1.00000000       0.00000000       0.00000000       0.00000000       0.00000000       0.00000000       0.00000000
H        2.80615512       1.62013441      22.29121606        2       1.00000000       0.00000000       0.00000000       0.00000000       0.00000000       0.00000000       0.00000000
H        1.40307756       4.05033604      22.29121606        2       1.00000000       0.00000000       0.00000000       0.00000000       0.00000000       0.00000000       0.00000000
H        4.20923268       4.05033604      22.29121606        2       1.00000000       0.00000000       0.00000000       0.00000000       0.00000000       0.00000000       0.00000000
H        0.00000000       0.00000000      24.58243212        1       1.00000000       0.00000000       0.00000000       0.00000000       0.00000000       0.00000000       0.00000000
H        2.80615512       0.00000000      24.58243212        1       1.00000000       0.00000000       0.00000000       0.00000000       0.00000000       0.00000000       0.00000000
H        1.40307756       2.43020162      24.58243212        1       1.00000000       0.00000000       0.00000000       0.00000000       0.00000000       0.00000000       0.00000000
H        4.20923268       2.43020162      24.58243212        1       1.00000000       0.00000000       0.00000000       0.00000000       0.00000000       0.00000000       0.00000000
H        2.80235115       3.22725451      26.78879966        0       1.00000000      -0.00002543      -0.00000204       0.00000765       0.00000222      -0.00004919       0.00001723
H        1.39278255       0.82466473      26.81308993        0       1.00000000      -0.00000700      -0.00001580      -0.00000357       0.00001419      -0.00000804      -0.00000562
H        4.21550914       2.41094571      29.01620656        0       1.00000000      -0.00001175       0.00000749       0.00000841       0.00001061      -0.00000713      -0.00001526