18
Lattice="5.612310241546866 0.0 0.0 0.0 4.860403243099165 0.0 0.0 0.0 44.58243212332868" Properties=species:S:1:pos:R:3:tags:I:1:masses:R:1:momenta:R:3:forces:R:3 KEmax=23.26679191048647 iter=42415 volume=1216.1236359717223 set_wall=T ns_energy=-11.643726392110107 last_walked_iter_clone=42293 energy=-11.645036753727652 stress="0.02255825156697796 -1.7235684948942576e-05 -0.00011756697810914434 -1.7235684948942576e-05 0.02251507364253544 -9.256092243171559e-05 -0.00011756697810914434 -9.256092243171559e-05 0.011821282248409379" pbc="T T F"
H        1.40307756       0.81006721      20.00000000        3       1.00000000       0.00000000       0.00000000       0.00000000       0.00000000       0.00000000       0.00000000
H        4.20923268       0.81006721      20.00000000        3       1.00000000       0.00000000       0.00000000       0.00000000       0.00000000       0.00000000       0.00000000
H        0.00000000       3.24026883      20.00000000        3       1.00000000       0.00000000       0.00000000       0.00000000       0.00000000       0.00000000       0.00000000
H        2.80615512       3.24026883      20.00000000        3       1.00000000       0.00000000       0.00000000       0.00000000       0.00000000       0.00000000       0.00000000
H        0.00000000       1.62013441      22.29121606        2       1.00000000       0.00000000       0.00000000       0.00000000       0.00000000       0.00000000       0.00000000
H        2.80615512       1.62013441      22.29121606        2       1.00000000       0.00000000       0.00000000       0.00000000       0.00000000       0.00000000       0.00000000
H        1.40307756       4.05033604      22.29121606        2       1.00000000       0.00000000       0.00000000       0.00000000       0.00000000       0.00000000       0.00000000
H        4.20923268       4.05033604      22.29121606        2       1.00000000       0.00000000       0.00000000       0.00000000       0.00000000       0.00000000       0.00000000
H        0.00000000       0.00000000      24.58243212        1       1.00000000       0.00000000       0.00000000       0.00000000       0.00000000       0.00000000       0.00000000
H        2.80615512       0.00000000      24.58243212        1       1.00000000       0.00000000       0.00000000       0.00000000       0.00000000       0.00000000       0.00000000
H        1.40307756       2.43020162      24.58243212        1       1.00000000       0.00000000       0.00000000       0.00000000       0.00000000       0.00000000       0.00000000
H        4.20923268       2.43020162      24.58243212        1       1.00000000       0.00000000       0.00000000       0.00000000       0.00000000       0.00000000       0.00000000
H        2.80216715       3.22252757      26.79052218        0       1.00000000      -0.00821650      -0.00004848      -0.00240574       0.00991051      -0.02618482       0.01859370
H        1.38237865       0.81559481      26.80848023        0       1.00000000      -0.00567338       0.01283072      -0.00539346       0.01312400      -0.00906079      -0.00855164
H        4.19835531       2.40765536      29.02414719        0       1.00000000      -0.00973256      -0.02522942      -0.01867174      -0.00851128       0.01483890      -0.00711269
H       -0.00113950       3.24115029      26.82368434        0       1.00000000       0.00141568      -0.02316754      -0.00323295      -0.03358421       0.01130939       0.00383872
H        4.20295266       0.79146472      26.78717381        0       1.00000000       0.00218281       0.01560726       0.00444896       0.01000191       0.01157822      -0.00178743
H        2.78759577       4.85061448      29.01777755        0       1.00000000       0.01257311      -0.01261612      -0.00110036       0.01527959      -0.00366349      -0.01398364
18
Lattice="5.612310241546866 0.0 0.0 0.0 4.860403243099165 0.0 0.0 0.0 44.58243212332868" Properties=species:S:1:pos:R:3:tags:I:1:masses:R:1:momenta:R:3:forces:R:3 KEmax=23.26679191048647 iter=42415 volume=1216.1236359717223 set_wall=T ns_energy=-11.643762141624995 last_walked_iter_clone=42290 energy=-11.645036753727652 stress="0.02255825156697796 -1.7235684948942576e-05 -0.00011756697810914434 -1.7235684948942576e-05 0.02251507364253544 -9.256092243171559e-05 -0.00011756697810914434 -9.256092243171559e-05 0.011821282248409379" pbc="T T F"
H        1.40307756       0.81006721      20.00000000        3       1.00000000       0.00000000       0.00000000       0.00000000       0.00000000       0.00000000       0.00000000
H        4.20923268       0.81006721      20.00000000        3       1.00000000       0.00000000       0.00000000       0.00000000       0.00000000       0.00000000       0.00000000
H        0.00000000       3.24026883      20.00000000        3       1.00000000       0.00000000       0.00000000       0.00000000       0.00000000       0.00000000       0.00000000
H        2.80615512       3.24026883      20.00000000        3       1.00000000       0.00000000       0.00000000       0.00000000       0.00000000       0.00000000       0.00000000
H        0.00000000       1.62013441      22.29121606        2       1.00000000       0.00000000       0.00000000       0.00000000       0.00000000       0.00000000       0.00000000
H        2.80615512       1.62013441      22.29121606        2       1.00000000       0.00000000       0.00000000       0.00000000       0.00000000       0.00000000       0.00000000
H        1.40307756       4.05033604      22.29121606        2       1.00000000       0.00000000       0.00000000       0.00000000       0.00000000       0.00000000       0.00000000
H        4.20923268       4.05033604      22.29121606        2       1.00000000       0.00000000       0.00000000       0.00000000       0.00000000       0.00000000       0.00000000
H        0.00000000       0.00000000      24.58243212        1       1.00000000       0.00000000       0.00000000       0.00000000       0.00000000       0.00000000       0.00000000
H        2.80615512       0.00000000      24.58243212        1       1.00000000       0.00000000       0.00000000       0.00000000       0.00000000       0.00000000       0.00000000
H        1.40307756       2.43020162      24.58243212        1       1.00000000       0.00000000       0.00000000       0.00000000       0.00000000       0.00000000       0.00000000
H        4.20923268       2.43020162      24.58243212        1       1.00000000       0.00000000       0.00000000       0.00000000       0.00000000       0.00000000       0.00000000
H        2.79935272       3.23350713      26.79075491        0       1.00000000       0.01485250       0.01848918       0.00287962       0.00991051      -0.02618482       0.01859370
H        1.39944281       0.83475118      26.81344682        0       1.00000000      -0.00463373       0.01870324       0.00147374       0.01312400      -0.00906079      -0.00855164
H        4.22402967       2.42175730      29.01903294        0       1.00000000       0.00341163      -0.00270248       0.00807896      -0.00851128       0.01483890      -0.00711269
H        0.00556867       3.26494723      26.81393042        0       1.00000000      -0.02244659       0.02079010       0.01016686      -0.03358421       0.01130939       0.00383872
H        4.20539847       0.80742550      26.78545870        0       1.00000000      -0.00771415       0.01440106       0.01195239       0.01000191       0.01157822      -0.00178743
H        2.79316646       4.86195865      29.01963937        0       1.00000000      -0.00645208       0.00525398      -0.01080242       0.01527959      -0.00366349      -0.01398364
18
Lattice="5.612310241546866 0.0 0.0 0.0 4.860403243099165 0.0 0.0 0.0 44.58243212332868" Properties=species:S:1:pos:R:3:tags:I:1:masses:R:1:momenta:R:3:forces:R:3 KEmax=23.26679191048647 iter=42415 volume=1216.1236359717223 set_wall=T ns_energy=-11.643755983423828 last_walked_iter_clone=41987 energy=-11.645036753727652 stress="0.02255825156697796 -1.7235684948942576e-05 -0.00011756697810914434 -1.7235684948942576e-05 0.02251507364253544 -9.256092243171559e-05 -0.00011756697810914434 -9.256092243171559e-05 0.011821282248409379" pbc="T T F"
H        1.40307756       0.81006721      20.00000000        3       1.00000000       0.00000000       0.00000000       0.00000000       0.00000000       0.00000000       0.00000000
H        4.20923268       0.81006721      20.00000000        3       1.00000000       0.00000000       0.00000000       0.00000000       0.00000000       0.00000000       0.00000000
H        0.00000000       3.24026883      20.00000000        3       1.00000000       0.00000000       0.00000000       0.00000000       0.00000000       0.00000000       0.00000000
H        2.80615512       3.24026883      20.00000000        3       1.00000000       0.00000000       0.00000000       0.00000000       0.00000000       0.00000000       0.00000000
H        0.00000000       1.62013441      22.29121606        2       1.00000000       0.00000000       0.00000000       0.00000000       0.00000000       0.00000000       0.00000000
H        2.80615512       1.62013441      22.29121606        2       1.00000000       0.00000000       0.00000000       0.00000000       0.00000000       0.00000000       0.00000000
H        1.40307756       4.05033604      22.29121606        2       1.00000000       0.00000000       0.00000000       0.00000000       0.00000000       0.00000000       0.00000000
H        4.20923268       4.05033604      22.29121606        2       1.00000000       0.00000000       0.00000000       0.00000000       0.00000000       0.00000000       0.00000000
H        0.00000000       0.00000000      24.58243212        1       1.00000000       0.00000000       0.00000000       0.00000000       0.00000000       0.00000000       0.00000000
H        2.80615512       0.00000000      24.58243212        1       1.00000000       0.00000000       0.00000000       0.00000000       0.00000000       0.00000000       0.00000000
H        1.40307756       2.43020162      24.58243212        1       1.00000000       0.00000000       0.00000000       0.00000000       0.00000000       0.00000000       0.00000000
H        4.20923268       2.43020162      24.58243212        1       1.00000000       0.00000000       0.00000000       0.00000000       0.00000000       0.00000000       0.00000000
H        2.79571563       3.23118353      26.77777795        0       1.00000000       0.01076707      -0.01453361       0.00200021       0.00991051      -0.02618482       0.01859370
H        1.38736360       0.82511099      26.81118894        0       1.00000000       0.00042051      -0.01135874       0.00357973       0.01312400      -0.00906079      -0.00855164
H        4.18609229       2.41542638      29.01195676        0       1.00000000       0.03068760       0.00494768      -0.01210642      -0.00851128       0.01483890      -0.00711269
H        5.62140222       3.23962652      26.81461972        0       1.00000000       0.00074799      -0.00451894      -0.00745698      -0.03358421       0.01130939       0.00383872
H        4.20678525       0.78974725      26.78913243        0       1.00000000       0.01315586      -0.00681564      -0.01871780       0.01000191       0.01157822      -0.00178743
H        2.78584087       4.83820359      29.02185772        0       1.00000000      -0.00102823       0.00710311       0.01235059       0.01527959      -0.00366349      -0.01398364
18
Lattice="5.612310241546866 0.0 0.0 0.0 4.860403243099165 0.0 0.0 0.0 44.58243212332868" Properties=species:S:1:pos:R:3:tags:I:1:masses:R:1:momenta:R:3:forces:R:3 KEmax=23.26679191048647 iter=42415 volume=1216.1236359717223 set_wall=T ns_energy=-11.643751517375227 last_walked_iter_clone=42262 energy=-11.645036753727652 stress="0.02255825156697796 -1.7235684948942576e-05 -0.00011756697810914434 -1.7235684948942576e-05 0.02251507364253544 -9.256092243171559e-05 -0.00011756697810914434 -9.256092243171559e-05 0.011821282248409379" pbc="T T F"
H        1.40307756       0.81006721      20.00000000        3       1.00000000       0.00000000       0.00000000       0.00000000       0.00000000       0.00000000       0.00000000
H        4.20923268       0.81006721      20.00000000        3       1.00000000       0.00000000       0.00000000       0.00000000       0.00000000       0.00000000       0.00000000
H        0.00000000       3.24026883      20.00000000        3       1.00000000       0.00000000       0.00000000       0.00000000       0.00000000       0.00000000       0.00000000
H        2.80615512       3.24026883      20.00000000        3       1.00000000       0.00000000       0.00000000       0.00000000       0.00000000       0.00000000       0.00000000
H        0.00000000       1.62013441      22.29121606        2       1.00000000       0.00000000       0.00000000       0.00000000       0.00000000       0.00000000       0.00000000
H        2.80615512       1.62013441      22.29121606        2       1.00000000       0.00000000       0.00000000       0.00000000       0.00000000       0.00000000       0.00000000
H        1.40307756       4.05033604      22.29121606        2       1.00000000       0.00000000       0.00000000       0.00000000       0.00000000       0.00000000       0.00000000
H        4.20923268       4.05033604      22.29121606        2       1.00000000       0.00000000       0.00000000       0.00000000       0.00000000       0.00000000       0.00000000
H        0.00000000       0.00000000      24.58243212        1       1.00000000       0.00000000       0.00000000       0.00000000       0.00000000       0.00000000       0.00000000
H        2.80615512       0.00000000      24.58243212        1       1.00000000       0.00000000       0.00000000       0.00000000       0.00000000       0.00000000       0.00000000
H        1.40307756       2.43020162      24.58243212        1       1.00000000       0.00000000       0.00000000       0.00000000       0.00000000       0.00000000       0.00000000
H        4.20923268       2.43020162      24.58243212        1       1.00000000       0.00000000       0.00000000       0.00000000       0.00000000       0.00000000       0.00000000
H        2.79215322       3.23454312      26.79695513        0       1.00000000       0.00679140      -0.01551436      -0.00606868       0.00991051      -0.02618482       0.01859370
H        1.38631484       0.82740819      26.81307902        0       1.00000000      -0.01561086       0.01659715       0.01116336       0.01312400      -0.00906079      -0.00855164
H        4.20851546       2.40736108      29.01348479        0       1.00000000      -0.00747318       0.00233930       0.02063580      -0.00851128       0.01483890      -0.00711269
H        0.00087195       3.25859708      26.81348298        0       1.00000000      -0.00531373      -0.00296826      -0.01855381      -0.03358421       0.01130939       0.00383872
H        4.20810011       0.79292951      26.79669956        0       1.00000000      -0.01284637       0.01850822      -0.00949873       0.01000191       0.01157822      -0.00178743
H        2.80506762       4.85208999      29.02162127        0       1.00000000       0.00748579       0.00204420       0.00392522       0.01527959      -0.00366349      -0.01398364
18
Lattice="5.612310241546866 0.0 0.0 0.0 4.860403243099165 0.0 0.0 0.0 44.58243212332868" Properties=species:S:1:pos:R:3:tags:I:1:masses:R:1:momenta:R:3:forces:R:3 KEmax=23.26679191048647 iter=42415 volume=1216.1236359717223 set_wall=T ns_energy=-11.643744533889924 last_walked_iter_clone=42196 energy=-11.645036753727652 stress="0.02255825156697796 -1.7235684948942576e-05 -0.00011756697810914434 -1.7235684948942576e-05 0.02251507364253544 -9.256092243171559e-05 -0.00011756697810914434 -9.256092243171559e-05 0.011821282248409379" pbc="T T F"
H        1.40307756       0.81006721      20.00000000        3       1.00000000       0.00000000       0.00000000       0.00000000       0.00000000       0.00000000       0.00000000
H        4.20923268       0.81006721      20.00000000        3       1.00000000       0.00000000       0.00000000       0.00000000       0.00000000       0.00000000       0.00000000
H        0.00000000       3.24026883      20.00000000        3       1.00000000       0.00000000       0.00000000       0.00000000       0.00000000       0.00000000       0.00000000
H        2.80615512       3.24026883      20.00000000        3       1.00000000       0.00000000       0.00000000       0.00000000       0.00000000       0.00000000       0.00000000
H        0.00000000       1.62013441      22.29121606        2       1.00000000       0.00000000       0.00000000       0.00000000       0.00000000       0.00000000       0.00000000
H        2.80615512       1.62013441      22.29121606        2       1.00000000       0.00000000       0.00000000       0.00000000       0.00000000       0.00000000       0.00000000
H        1.40307756       4.05033604      22.29121606        2       1.00000000       0.00000000       0.00000000       0.00000000       0.00000000       0.00000000       0.00000000
H        4.20923268       4.05033604      22.29121606        2       1.00000000       0.00000000       0.00000000       0.00000000       0.00000000       0.00000000       0.00000000
H        0.00000000       0.00000000      24.58243212        1       1.00000000       0.00000000       0.00000000       0.00000000       0.00000000       0.00000000       0.00000000
H        2.80615512       0.00000000      24.58243212        1       1.00000000       0.00000000       0.00000000       0.00000000       0.00000000       0.00000000       0.00000000
H        1.40307756       2.43020162      24.58243212        1       1.00000000       0.00000000       0.00000000       0.00000000       0.00000000       0.00000000       0.00000000
H        4.20923268       2.43020162      24.58243212        1       1.00000000       0.00000000       0.00000000       0.00000000       0.00000000       0.00000000       0.00000000
H        2.81475022       3.23861352      26.79086794        0       1.00000000       0.00539166      -0.02356849      -0.02026069       0.00991051      -0.02618482       0.01859370
H        1.40256040       0.83145192      26.80885747        0       1.00000000       0.00011032       0.00068947       0.00344355       0.01312400      -0.00906079      -0.00855164
H        4.22043561       2.43476539      29.01132352        0       1.00000000       0.01150728      -0.00066635       0.00632948      -0.00851128       0.01483890      -0.00711269
H        0.02466172       3.25662462      26.80533815        0       1.00000000      -0.00633879       0.00237796       0.01683534      -0.03358421       0.01130939       0.00383872
H        4.23172203       0.80211845      26.78369570        0       1.00000000      -0.00946906      -0.00812484       0.01544104       0.01000191       0.01157822      -0.00178743
H        2.81574831       4.86145082      29.00646262        0       1.00000000       0.00581249       0.02004530      -0.00286453       0.01527959      -0.00366349      -0.01398364
18
Lattice="5.612310241546866 0.0 0.0 0.0 4.860403243099165 0.0 0.0 0.0 44.58243212332868" Properties=species:S:1:pos:R:3:tags:I:1:masses:R:1:momenta:R:3:forces:R:3 KEmax=23.26679191048647 iter=42415 volume=1216.1236359717223 set_wall=T ns_energy=-11.64380238235554 last_walked_iter_clone=42397 energy=-11.645036753727652 stress="0.02255825156697796 -1.7235684948942576e-05 -0.00011756697810914434 -1.7235684948942576e-05 0.02251507364253544 -9.256092243171559e-05 -0.00011756697810914434 -9.256092243171559e-05 0.011821282248409379" pbc="T T F"
H        1.40307756       0.81006721      20.00000000        3       1.00000000       0.00000000       0.00000000       0.00000000       0.00000000       0.00000000       0.00000000
H        4.20923268       0.81006721      20.00000000        3       1.00000000       0.00000000       0.00000000       0.00000000       0.00000000       0.00000000       0.00000000
H        0.00000000       3.24026883      20.00000000        3       1.00000000       0.00000000       0.00000000       0.00000000       0.00000000       0.00000000       0.00000000
H        2.80615512       3.24026883      20.00000000        3       1.00000000       0.00000000       0.00000000       0.00000000       0.00000000       0.00000000       0.00000000
H        0.00000000       1.62013441      22.29121606        2       1.00000000       0.00000000       0.00000000       0.00000000       0.00000000       0.00000000       0.00000000
H        2.80615512       1.62013441      22.29121606        2       1.00000000       0.00000000       0.00000000       0.00000000       0.00000000       0.00000000       0.00000000
H        1.40307756       4.05033604      22.29121606        2       1.00000000       0.00000000       0.00000000       0.00000000       0.00000000       0.00000000       0.00000000
H        4.20923268       4.05033604      22.29121606        2       1.00000000       0.00000000       0.00000000       0.00000000       0.00000000       0.00000000       0.00000000
H        0.00000000       0.00000000      24.58243212        1       1.00000000       0.00000000       0.00000000       0.00000000       0.00000000       0.00000000       0.00000000
H        2.80615512       0.00000000      24.58243212        1       1.00000000       0.00000000       0.00000000       0.00000000       0.00000000       0.00000000       0.00000000
H        1.40307756       2.43020162      24.58243212        1       1.00000000       0.00000000       0.00000000       0.00000000       0.00000000       0.00000000       0.00000000
H        4.20923268       2.43020162      24.58243212        1       1.00000000       0.00000000       0.00000000       0.00000000       0.00000000       0.00000000       0.00000000
H        2.80454974       3.23430229      26.78648340        0       1.00000000      -0.00522015       0.00212951      -0.03884218       0.00991051      -0.02618482       0.01859370
H        1.40012661       0.83677392      26.80646241        0       1.00000000       0.00339943      -0.01085337       0.00488442       0.01312400      -0.00906079      -0.00855164
H        4.21110644       2.43749548      29.01442570        0       1.00000000       0.00599824      -0.00679087       0.01707942      -0.00851128       0.01483890      -0.00711269
H        0.01327983       3.25803409      26.80643726        0       1.00000000       0.00131939      -0.00846022       0.00889719      -0.03358421       0.01130939       0.00383872
H        4.21579400       0.80027717      26.79378727        0       1.00000000      -0.00280946       0.00153698       0.00964399       0.01000191       0.01157822      -0.00178743
H        2.79688655      -0.01064613      29.02163722        0       1.00000000      -0.00659338      -0.00498083      -0.01549224       0.01527959      -0.00366349      -0.01398364
18
Lattice="5.612310241546866 0.0 0.0 0.0 4.860403243099165 0.0 0.0 0.0 44.58243212332868" Properties=species:S:1:pos:R:3:tags:I:1:masses:R:1:momenta:R:3:forces:R:3 KEmax=23.26679191048647 iter=42415 volume=1216.1236359717223 set_wall=T ns_energy=-11.643698143916014 last_walked_iter_clone=42218 energy=-11.645036753727652 stress="0.02255825156697796 -1.7235684948942576e-05 -0.00011756697810914434 -1.7235684948942576e-05 0.02251507364253544 -9.256092243171559e-05 -0.00011756697810914434 -9.256092243171559e-05 0.011821282248409379" pbc="T T F"
H        1.40307756       0.81006721      20.00000000        3       1.00000000       0.00000000       0.00000000       0.00000000       0.00000000       0.00000000       0.00000000
H        4.20923268       0.81006721      20.00000000        3       1.00000000       0.00000000       0.00000000       0.00000000       0.00000000       0.00000000       0.00000000
H        0.00000000       3.24026883      20.00000000        3       1.00000000       0.00000000       0.00000000       0.00000000       0.00000000       0.00000000       0.00000000
H        2.80615512       3.24026883      20.00000000        3       1.00000000       0.00000000       0.00000000       0.00000000       0.00000000       0.00000000       0.00000000
H        0.00000000       1.62013441      22.29121606        2       1.00000000       0.00000000       0.00000000       0.00000000       0.00000000       0.00000000       0.00000000
H        2.80615512       1.62013441      22.29121606        2       1.00000000       0.00000000       0.00000000       0.00000000       0.00000000       0.00000000       0.00000000
H        1.40307756       4.05033604      22.29121606        2       1.00000000       0.00000000       0.00000000       0.00000000       0.00000000       0.00000000       0.00000000
H        4.20923268       4.05033604      22.29121606        2       1.00000000       0.00000000       0.00000000       0.00000000       0.00000000       0.00000000       0.00000000
H        0.00000000       0.00000000      24.58243212        1       1.00000000       0.00000000       0.00000000       0.00000000       0.00000000       0.00000000       0.00000000
H        2.80615512       0.00000000      24.58243212        1       1.00000000       0.00000000       0.00000000       0.00000000       0.00000000       0.00000000       0.00000000
H        1.40307756       2.43020162      24.58243212        1       1.00000000       0.00000000       0.00000000       0.00000000       0.00000000       0.00000000       0.00000000
H        4.20923268       2.43020162      24.58243212        1       1.00000000       0.00000000       0.00000000       0.00000000       0.00000000       0.00000000       0.00000000
H        2.80167990       3.21769727      26.79108115        0       1.00000000       0.00332097      -0.00504332      -0.01256215       0.00991051      -0.02618482       0.01859370
H        1.39055276       0.81376357      26.79818269        0       1.00000000       0.01175481       0.01344999      -0.00101715       0.01312400      -0.00906079      -0.00855164
H        4.21884172       2.41230426      29.02500933        0       1.00000000      -0.00420168      -0.01651453       0.01702286      -0.00851128       0.01483890      -0.00711269
H        0.01726418       3.24295742      26.81487388        0       1.00000000       0.02287524      -0.00721795       0.00324577      -0.03358421       0.01130939       0.00383872
H        4.21888046       0.79781936      26.79470527        0       1.00000000      -0.01043659       0.01646092       0.00895998       0.01000191       0.01157822      -0.00178743
H        2.79734716       4.84290728      29.01702624        0       1.00000000      -0.01046071       0.00886245       0.01235806       0.01527959      -0.00366349      -0.01398364
18
Lattice="5.612310241546866 0.0 0.0 0.0 4.860403243099165 0.0 0.0 0.0 44.58243212332868" Properties=species:S:1:pos:R:3:tags:I:1:masses:R:1:momenta:R:3:forces:R:3 KEmax=23.26679191048647 iter=42415 volume=1216.1236359717223 set_wall=T ns_energy=-11.643701238419268 last_walked_iter_clone=42142 energy=-11.645036753727652 stress="0.02255825156697796 -1.7235684948942576e-05 -0.00011756697810914434 -1.7235684948942576e-05 0.02251507364253544 -9.256092243171559e-05 -0.00011756697810914434 -9.256092243171559e-05 0.011821282248409379" pbc="T T F"
H        1.40307756       0.81006721      20.00000000        3       1.00000000       0.00000000       0.00000000       0.00000000       0.00000000       0.00000000       0.00000000
H        4.20923268       0.81006721      20.00000000        3       1.00000000       0.00000000       0.00000000       0.00000000       0.00000000       0.00000000       0.00000000
H        0.00000000       3.24026883      20.00000000        3       1.00000000       0.00000000       0.00000000       0.00000000       0.00000000       0.00000000       0.00000000
H        2.80615512       3.24026883      20.00000000        3       1.00000000       0.00000000       0.00000000       0.00000000       0.00000000       0.00000000       0.00000000
H        0.00000000       1.62013441      22.29121606        2       1.00000000       0.00000000       0.00000000       0.00000000       0.00000000       0.00000000       0.00000000
H        2.80615512       1.62013441      22.29121606        2       1.00000000       0.00000000       0.00000000       0.00000000       0.00000000       0.00000000       0.00000000
H        1.40307756       4.05033604      22.29121606        2       1.00000000       0.00000000       0.00000000       0.00000000       0.00000000       0.00000000       0.00000000
H        4.20923268       4.05033604      22.29121606        2       1.00000000       0.00000000       0.00000000       0.00000000       0.00000000       0.00000000       0.00000000
H        0.00000000       0.00000000      24.58243212        1       1.00000000       0.00000000       0.00000000       0.00000000       0.00000000       0.00000000       0.00000000
H        2.80615512       0.00000000      24.58243212        1       1.00000000       0.00000000       0.00000000       0.00000000       0.00000000       0.00000000       0.00000000
H        1.40307756       2.43020162      24.58243212        1       1.00000000       0.00000000       0.00000000       0.00000000       0.00000000       0.00000000       0.00000000
H        4.20923268       2.43020162      24.58243212        1       1.00000000       0.00000000       0.00000000       0.00000000       0.00000000       0.00000000       0.00000000
H        2.80227876       3.21608531      26.79636710        0       1.00000000      -0.00954382      -0.00463240       0.02568121       0.00991051      -0.02618482       0.01859370
H        1.38703892       0.81720929      26.81403312        0       1.00000000       0.00147472      -0.00357139      -0.01633818       0.01312400      -0.00906079      -0.00855164