18
Lattice="5.612310241546866 0.0 0.0 0.0 4.860403243099165 0.0 0.0 0.0 44.58243212332868" Properties=species:S:1:pos:R:3:tags:I:1:masses:R:1:momenta:R:3:forces:R:3 KEmax=23.26679191048647 iter=83438 volume=1216.1236359717223 set_wall=T ns_energy=-11.645792587641251 last_walked_iter_clone=83431 energy=-11.645792661261156 stress="0.022427324972837677 -1.3895994802886318e-06 -1.0598946748285051e-06 -1.3895994802886318e-06 0.022410235296801938 -1.4338884339898118e-06 -1.0598946748285051e-06 -1.4338884339898118e-06 0.011578652939949486" pbc="T T F"
H        1.40307756       0.81006721      20.00000000        3       1.00000000       0.00000000       0.00000000       0.00000000       0.00000000       0.00000000       0.00000000
H        4.20923268       0.81006721      20.00000000        3       1.00000000       0.00000000       0.00000000       0.00000000       0.00000000       0.00000000       0.00000000
H        0.00000000       3.24026883      20.00000000        3       1.00000000       0.00000000       0.00000000       0.00000000       0.00000000       0.00000000       0.00000000
H        2.80615512       3.24026883      20.00000000        3       1.00000000       0.00000000       0.00000000       0.00000000       0.00000000       0.00000000       0.00000000
H        0.00000000       1.62013441      22.29121606        2       1.00000000       0.00000000       0.00000000       0.00000000       0.00000000       0.00000000       0.00000000
H        2.80615512       1.62013441      22.29121606        2       1.00000000       0.00000000       0.00000000       0.00000000       0.00000000       0.00000000       0.00000000
H        1.40307756       4.05033604      22.29121606        2       1.00000000       0.00000000       0.00000000       0.00000000       0.00000000       0.00000000       0.00000000
H        4.20923268       4.05033604      22.29121606        2       1.00000000       0.00000000       0.00000000       0.00000000       0.00000000       0.00000000       0.00000000
H        0.00000000       0.00000000      24.58243212        1       1.00000000       0.00000000       0.00000000       0.00000000       0.00000000       0.00000000       0.00000000
H        2.80615512       0.00000000      24.58243212        1       1.00000000       0.00000000       0.00000000       0.00000000       0.00000000       0.00000000       0.00000000
H        1.40307756       2.43020162      24.58243212        1       1.00000000       0.00000000       0.00000000       0.00000000       0.00000000       0.00000000       0.00000000
H        4.20923268       2.43020162      24.58243212        1       1.00000000       0.00000000       0.00000000       0.00000000       0.00000000       0.00000000       0.00000000
H        2.80243510       3.22724036      26.78879762        0       1.00000000      -0.00005144      -0.00000909       0.00000099       0.00000237       0.00001551      -0.00025850
H        1.39277044       0.82463203      26.81316424        0       1.00000000       0.00002897       0.00004816       0.00013334       0.00014775       0.00032875      -0.00012658
H        4.21558245       2.41091056      29.01624887        0       1.00000000      -0.00005056      -0.00011492      -0.00004925       0.00005025       0.00016341       0.00016343
H        0.01047477       3.25485723      26.81308852        0       1.00000000      -0.00012825       0.00006691       0.00021227      -0.00009160      -0.00012987      -0.00002957
H        4.21308316       0.79697447      26.78882467        0       1.00000000      -0.00009854      -0.00012167      -0.00004498       0.00005024      -0.00007722      -0.00033887
H        2.79995177       4.84106655      29.01629342        0       1.00000000      -0.00004394       0.00007659       0.00017749      -0.00004595      -0.00015744      -0.00008484
18
Lattice="5.612310241546866 0.0 0.0 0.0 4.860403243099165 0.0 0.0 0.0 44.58243212332868" Properties=species:S:1:pos:R:3:tags:I:1:masses:R:1:momenta:R:3:forces:R:3 KEmax=23.26679191048647 iter=83438 volume=1216.1236359717223 set_wall=T ns_energy=-11.645792588386259 last_walked_iter_clone=83427 energy=-11.645792661261156 stress="0.022427324972837677 -1.3895994802886318e-06 -1.0598946748285051e-06 -1.3895994802886318e-06 0.022410235296801938 -1.4338884339898118e-06 -1.0598946748285051e-06 -1.4338884339898118e-06 0.011578652939949486" pbc="T T F"
H        1.40307756       0.81006721      20.00000000        3       1.00000000       0.00000000       0.00000000       0.00000000       0.00000000       0.00000000       0.00000000
H        4.20923268       0.81006721      20.00000000        3       1.00000000       0.00000000       0.00000000       0.00000000       0.00000000       0.00000000       0.00000000
H        0.00000000       3.24026883      20.00000000        3       1.00000000       0.00000000       0.00000000       0.00000000       0.00000000       0.00000000       0.00000000
H        2.80615512       3.24026883      20.00000000        3       1.00000000       0.00000000       0.00000000       0.00000000       0.00000000       0.00000000       0.00000000
H        0.00000000       1.62013441      22.29121606        2       1.00000000       0.00000000       0.00000000       0.00000000       0.00000000       0.00000000       0.00000000
H        2.80615512       1.62013441      22.29121606        2       1.00000000       0.00000000       0.00000000       0.00000000       0.00000000       0.00000000       0.00000000
H        1.40307756       4.05033604      22.29121606        2       1.00000000       0.00000000       0.00000000       0.00000000       0.00000000       0.00000000       0.00000000
H        4.20923268       4.05033604      22.29121606        2       1.00000000       0.00000000       0.00000000       0.00000000       0.00000000       0.00000000       0.00000000
H        0.00000000       0.00000000      24.58243212        1       1.00000000       0.00000000       0.00000000       0.00000000       0.00000000       0.00000000       0.00000000
H        2.80615512       0.00000000      24.58243212        1       1.00000000       0.00000000       0.00000000       0.00000000       0.00000000       0.00000000       0.00000000
H        1.40307756       2.43020162      24.58243212        1       1.00000000       0.00000000       0.00000000       0.00000000       0.00000000       0.00000000       0.00000000
H        4.20923268       2.43020162      24.58243212        1       1.00000000       0.00000000       0.00000000       0.00000000       0.00000000       0.00000000       0.00000000
H        2.80241358       3.22725423      26.78874809        0       1.00000000       0.00003223      -0.00017527       0.00004502       0.00000237       0.00001551      -0.00025850
H        1.39279506       0.82467110      26.81305686        0       1.00000000       0.00000660       0.00003517      -0.00008332       0.00014775       0.00032875      -0.00012658
H        4.21551532       2.41097681      29.01622153        0       1.00000000       0.00018806       0.00000335      -0.00005346       0.00005025       0.00016341       0.00016343
H        0.01027722       3.25490327      26.81310739        0       1.00000000       0.00001384       0.00007446      -0.00015471      -0.00009160      -0.00012987      -0.00002957
H        4.21297091       0.79709965      26.78869917        0       1.00000000      -0.00006786       0.00002344      -0.00007017       0.00005024      -0.00007722      -0.00033887
H        2.79994863       4.84118904      29.01621886        0       1.00000000       0.00019050      -0.00017723       0.00002239      -0.00004595      -0.00015744      -0.00008484
18
Lattice="5.612310241546866 0.0 0.0 0.0 4.860403243099165 0.0 0.0 0.0 44.58243212332868" Properties=species:S:1:pos:R:3:tags:I:1:masses:R:1:momenta:R:3:forces:R:3 KEmax=23.26679191048647 iter=83438 volume=1216.1236359717223 set_wall=T ns_energy=-11.64579258259149 last_walked_iter_clone=83345 energy=-11.645792661261156 stress="0.022427324972837677 -1.3895994802886318e-06 -1.0598946748285051e-06 -1.3895994802886318e-06 0.022410235296801938 -1.4338884339898118e-06 -1.0598946748285051e-06 -1.4338884339898118e-06 0.011578652939949486" pbc="T T F"
H        1.40307756       0.81006721      20.00000000        3       1.00000000       0.00000000       0.00000000       0.00000000       0.00000000       0.00000000       0.00000000
H        4.20923268       0.81006721      20.00000000        3       1.00000000       0.00000000       0.00000000       0.00000000       0.00000000       0.00000000       0.00000000
H        0.00000000       3.24026883      20.00000000        3       1.00000000       0.00000000       0.00000000       0.00000000       0.00000000       0.00000000       0.00000000
H        2.80615512       3.24026883      20.00000000        3       1.00000000       0.00000000       0.00000000       0.00000000       0.00000000       0.00000000       0.00000000
H        0.00000000       1.62013441      22.29121606        2       1.00000000       0.00000000       0.00000000       0.00000000       0.00000000       0.00000000       0.00000000
H        2.80615512       1.62013441      22.29121606        2       1.00000000       0.00000000       0.00000000       0.00000000       0.00000000       0.00000000       0.00000000
H        1.40307756       4.05033604      22.29121606        2       1.00000000       0.00000000       0.00000000       0.00000000       0.00000000       0.00000000       0.00000000
H        4.20923268       4.05033604      22.29121606        2       1.00000000       0.00000000       0.00000000       0.00000000       0.00000000       0.00000000       0.00000000
H        0.00000000       0.00000000      24.58243212        1       1.00000000       0.00000000       0.00000000       0.00000000       0.00000000       0.00000000       0.00000000
H        2.80615512       0.00000000      24.58243212        1       1.00000000       0.00000000       0.00000000       0.00000000       0.00000000       0.00000000       0.00000000
H        1.40307756       2.43020162      24.58243212        1       1.00000000       0.00000000       0.00000000       0.00000000       0.00000000       0.00000000       0.00000000
H        4.20923268       2.43020162      24.58243212        1       1.00000000       0.00000000       0.00000000       0.00000000       0.00000000       0.00000000       0.00000000
H        2.80235765       3.22717998      26.78885191        0       1.00000000      -0.00004821      -0.00001009       0.00001823       0.00000237       0.00001551      -0.00025850
H        1.39283966       0.82462632      26.81309975        0       1.00000000       0.00000298      -0.00013777       0.00016733       0.00014775       0.00032875      -0.00012658
H        4.21575340       2.41083962      29.01616278        0       1.00000000       0.00002476      -0.00009028      -0.00006724       0.00005025       0.00016341       0.00016343
H        0.01032105       3.25481152      26.81303795        0       1.00000000      -0.00009924       0.00003001       0.00004183      -0.00009160      -0.00012987      -0.00002957
H        4.21298792       0.79709663      26.78869443        0       1.00000000      -0.00016926      -0.00000398       0.00017879       0.00005024      -0.00007722      -0.00033887
H        2.80013246       4.84106702      29.01626831        0       1.00000000       0.00003926      -0.00004167      -0.00007532      -0.00004595      -0.00015744      -0.00008484
18
Lattice="5.612310241546866 0.0 0.0 0.0 4.860403243099165 0.0 0.0 0.0 44.58243212332868" Properties=species:S:1:pos:R:3:tags:I:1:masses:R:1:momenta:R:3:forces:R:3 KEmax=23.26679191048647 iter=83438 volume=1216.1236359717223 set_wall=T ns_energy=-11.6457925827894 last_walked_iter_clone=83344 energy=-11.645792661261156 stress="0.022427324972837677 -1.3895994802886318e-06 -1.0598946748285051e-06 -1.3895994802886318e-06 0.022410235296801938 -1.4338884339898118e-06 -1.0598946748285051e-06 -1.4338884339898118e-06 0.011578652939949486" pbc="T T F"
H        1.40307756       0.81006721      20.00000000        3       1.00000000       0.00000000       0.00000000       0.00000000       0.00000000       0.00000000       0.00000000
H        4.20923268       0.81006721      20.00000000        3       1.00000000       0.00000000       0.00000000       0.00000000       0.00000000       0.00000000       0.00000000
H        0.00000000       3.24026883      20.00000000        3       1.00000000       0.00000000       0.00000000       0.00000000       0.00000000       0.00000000       0.00000000
H        2.80615512       3.24026883      20.00000000        3       1.00000000       0.00000000       0.00000000       0.00000000       0.00000000       0.00000000       0.00000000
H        0.00000000       1.62013441      22.29121606        2       1.00000000       0.00000000       0.00000000       0.00000000       0.00000000       0.00000000       0.00000000
H        2.80615512       1.62013441      22.29121606        2       1.00000000       0.00000000       0.00000000       0.00000000       0.00000000       0.00000000       0.00000000
H        1.40307756       4.05033604      22.29121606        2       1.00000000       0.00000000       0.00000000       0.00000000       0.00000000       0.00000000       0.00000000
H        4.20923268       4.05033604      22.29121606        2       1.00000000       0.00000000       0.00000000       0.00000000       0.00000000       0.00000000       0.00000000
H        0.00000000       0.00000000      24.58243212        1       1.00000000       0.00000000       0.00000000       0.00000000       0.00000000       0.00000000       0.00000000
H        2.80615512       0.00000000      24.58243212        1       1.00000000       0.00000000       0.00000000       0.00000000       0.00000000       0.00000000       0.00000000
H        1.40307756       2.43020162      24.58243212        1       1.00000000       0.00000000       0.00000000       0.00000000       0.00000000       0.00000000       0.00000000
H        4.20923268       2.43020162      24.58243212        1       1.00000000       0.00000000       0.00000000       0.00000000       0.00000000       0.00000000       0.00000000
H        2.80243624       3.22721570      26.78881275        0       1.00000000      -0.00005781       0.00014317       0.00005708       0.00000237       0.00001551      -0.00025850
H        1.39288158       0.82470286      26.81307246        0       1.00000000      -0.00001290       0.00017289       0.00000250       0.00014775       0.00032875      -0.00012658
H        4.21567304       2.41091080      29.01626109        0       1.00000000       0.00002904       0.00017078      -0.00001795       0.00005025       0.00016341       0.00016343
H        0.01034916       3.25492233      26.81305343        0       1.00000000       0.00004279       0.00014193       0.00003465      -0.00009160      -0.00012987      -0.00002957
H        4.21314467       0.79701031      26.78879462        0       1.00000000       0.00004021      -0.00013340      -0.00003662       0.00005024      -0.00007722      -0.00033887
H        2.79991491       4.84117014      29.01627182        0       1.00000000       0.00022266      -0.00001668      -0.00014704      -0.00004595      -0.00015744      -0.00008484
18
Lattice="5.612310241546866 0.0 0.0 0.0 4.860403243099165 0.0 0.0 0.0 44.58243212332868" Properties=species:S:1:pos:R:3:tags:I:1:masses:R:1:momenta:R:3:forces:R:3 KEmax=23.26679191048647 iter=83438 volume=1216.1236359717223 set_wall=T ns_energy=-11.645792580775032 last_walked_iter_clone=83347 energy=-11.645792661261156 stress="0.022427324972837677 -1.3895994802886318e-06 -1.0598946748285051e-06 -1.3895994802886318e-06 0.022410235296801938 -1.4338884339898118e-06 -1.0598946748285051e-06 -1.4338884339898118e-06 0.011578652939949486" pbc="T T F"
H        1.40307756       0.81006721      20.00000000        3       1.00000000       0.00000000       0.00000000       0.00000000       0.00000000       0.00000000       0.00000000
H        4.20923268       0.81006721      20.00000000        3       1.00000000       0.00000000       0.00000000       0.00000000       0.00000000       0.00000000       0.00000000
H        0.00000000       3.24026883      20.00000000        3       1.00000000       0.00000000       0.00000000       0.00000000       0.00000000       0.00000000       0.00000000
H        2.80615512       3.24026883      20.00000000        3       1.00000000       0.00000000       0.00000000       0.00000000       0.00000000       0.00000000       0.00000000
H        0.00000000       1.62013441      22.29121606        2       1.00000000       0.00000000       0.00000000       0.00000000       0.00000000       0.00000000       0.00000000
H        2.80615512       1.62013441      22.29121606        2       1.00000000       0.00000000       0.00000000       0.00000000       0.00000000       0.00000000       0.00000000
H        1.40307756       4.05033604      22.29121606        2       1.00000000       0.00000000       0.00000000       0.00000000       0.00000000       0.00000000       0.00000000
H        4.20923268       4.05033604      22.29121606        2       1.00000000       0.00000000       0.00000000       0.00000000       0.00000000       0.00000000       0.00000000
H        0.00000000       0.00000000      24.58243212        1       1.00000000       0.00000000       0.00000000       0.00000000       0.00000000       0.00000000       0.00000000
H        2.80615512       0.00000000      24.58243212        1       1.00000000       0.00000000       0.00000000       0.00000000       0.00000000       0.00000000       0.00000000
H        1.40307756       2.43020162      24.58243212        1       1.00000000       0.00000000       0.00000000       0.00000000       0.00000000       0.00000000       0.00000000
H        4.20923268       2.43020162      24.58243212        1       1.00000000       0.00000000       0.00000000       0.00000000       0.00000000       0.00000000       0.00000000
H        2.80233946       3.22726881      26.78877214        0       1.00000000       0.00023361      -0.00009552       0.00009276       0.00000237       0.00001551      -0.00025850
H        1.39272798       0.82463713      26.81310817        0       1.00000000       0.00023574       0.00011069      -0.00001028       0.00014775       0.00032875      -0.00012658
H        4.21550536       2.41095340      29.01623020        0       1.00000000       0.00004852       0.00008348       0.00006824       0.00005025       0.00016341       0.00016343
H        0.01028047       3.25482990      26.81304564        0       1.00000000      -0.00001197       0.00002226      -0.00004339      -0.00009160      -0.00012987      -0.00002957
H        4.21302100       0.79711778      26.78877902        0       1.00000000      -0.00003086      -0.00002312      -0.00017703       0.00005024      -0.00007722      -0.00033887
H        2.79985533       4.84120680      29.01616067        0       1.00000000      -0.00008314       0.00019054       0.00012350      -0.00004595      -0.00015744      -0.00008484
18
Lattice="5.612310241546866 0.0 0.0 0.0 4.860403243099165 0.0 0.0 0.0 44.58243212332868" Properties=species:S:1:pos:R:3:tags:I:1:masses:R:1:momenta:R:3:forces:R:3 KEmax=23.26679191048647 iter=83438 volume=1216.1236359717223 set_wall=T ns_energy=-11.645792579732294 last_walked_iter_clone=83276 energy=-11.645792661261156 stress="0.022427324972837677 -1.3895994802886318e-06 -1.0598946748285051e-06 -1.3895994802886318e-06 0.022410235296801938 -1.4338884339898118e-06 -1.0598946748285051e-06 -1.4338884339898118e-06 0.011578652939949486" pbc="T T F"
H        1.40307756       0.81006721      20.00000000        3       1.00000000       0.00000000       0.00000000       0.00000000       0.00000000       0.00000000       0.00000000
H        4.20923268       0.81006721      20.00000000        3       1.00000000       0.00000000       0.00000000       0.00000000       0.00000000       0.00000000       0.00000000
H        0.00000000       3.24026883      20.00000000        3       1.00000000       0.00000000       0.00000000       0.00000000       0.00000000       0.00000000       0.00000000
H        2.80615512       3.24026883      20.00000000        3       1.00000000       0.00000000       0.00000000       0.00000000       0.00000000       0.00000000       0.00000000
H        0.00000000       1.62013441      22.29121606        2       1.00000000       0.00000000       0.00000000       0.00000000       0.00000000       0.00000000       0.00000000
H        2.80615512       1.62013441      22.29121606        2       1.00000000       0.00000000       0.00000000       0.00000000       0.00000000       0.00000000       0.00000000
H        1.40307756       4.05033604      22.29121606        2       1.00000000       0.00000000       0.00000000       0.00000000       0.00000000       0.00000000       0.00000000
H        4.20923268       4.05033604      22.29121606        2       1.00000000       0.00000000       0.00000000       0.00000000       0.00000000       0.00000000       0.00000000
H        0.00000000       0.00000000      24.58243212        1       1.00000000       0.00000000       0.00000000       0.00000000       0.00000000       0.00000000       0.00000000
H        2.80615512       0.00000000      24.58243212        1       1.00000000       0.00000000       0.00000000       0.00000000       0.00000000       0.00000000       0.00000000
H        1.40307756       2.43020162      24.58243212        1       1.00000000       0.00000000       0.00000000       0.00000000       0.00000000       0.00000000       0.00000000
H        4.20923268       2.43020162      24.58243212        1       1.00000000       0.00000000       0.00000000       0.00000000       0.00000000       0.00000000       0.00000000
H        2.80246885       3.22726747      26.78878020        0       1.00000000       0.00000962      -0.00017768       0.00000576       0.00000237       0.00001551      -0.00025850
H        1.39280337       0.82462273      26.81304350        0       1.00000000       0.00008474       0.00009206      -0.00003749       0.00014775       0.00032875      -0.00012658
H        4.21560620       2.41106250      29.01627347        0       1.00000000       0.00008809      -0.00005738      -0.00011590       0.00005025       0.00016341       0.00016343
H        0.01034533       3.25475914      26.81305693        0       1.00000000      -0.00015796      -0.00017156       0.00013807      -0.00009160      -0.00012987      -0.00002957
H        4.21307846       0.79704981      26.78883154        0       1.00000000      -0.00010667      -0.00007399      -0.00015506       0.00005024      -0.00007722      -0.00033887
H        2.80000511       4.84117604      29.01621430        0       1.00000000      -0.00009502      -0.00008483      -0.00005620      -0.00004595      -0.00015744      -0.00008484
18
Lattice="5.612310241546866 0.0 0.0 0.0 4.860403243099165 0.0 0.0 0.0 44.58243212332868" Properties=species:S:1:pos:R:3:tags:I:1:masses:R:1:momenta:R:3:forces:R:3 KEmax=23.26679191048647 iter=83438 volume=1216.1236359717223 set_wall=T ns_energy=-11.645792582580638 last_walked_iter_clone=83321 energy=-11.645792661261156 stress="0.022427324972837677 -1.3895994802886318e-06 -1.0598946748285051e-06 -1.3895994802886318e-06 0.022410235296801938 -1.4338884339898118e-06 -1.0598946748285051e-06 -1.4338884339898118e-06 0.011578652939949486" pbc="T T F"
H        1.40307756       0.81006721      20.00000000        3       1.00000000       0.00000000       0.00000000       0.00000000       0.00000000       0.00000000       0.00000000
H        4.20923268       0.81006721      20.00000000        3       1.00000000       0.00000000       0.00000000       0.00000000       0.00000000       0.00000000       0.00000000
H        0.00000000       3.24026883      20.00000000        3       1.00000000       0.00000000       0.00000000       0.00000000       0.00000000       0.00000000       0.00000000
H        2.80615512       3.24026883      20.00000000        3       1.00000000       0.00000000       0.00000000       0.00000000       0.00000000       0.00000000       0.00000000
H        0.00000000       1.62013441      22.29121606        2       1.00000000       0.00000000       0.00000000       0.00000000       0.00000000       0.00000000       0.00000000
H        2.80615512       1.62013441      22.29121606        2       1.00000000       0.00000000       0.00000000       0.00000000       0.00000000       0.00000000       0.00000000
H        1.40307756       4.05033604      22.29121606        2       1.00000000       0.00000000       0.00000000       0.00000000       0.00000000       0.00000000       0.00000000
H        4.20923268       4.05033604      22.29121606        2       1.00000000       0.00000000       0.00000000       0.00000000       0.00000000       0.00000000       0.00000000
H        0.00000000       0.00000000      24.58243212        1       1.00000000       0.00000000       0.00000000       0.00000000       0.00000000       0.00000000       0.00000000
H        2.80615512       0.00000000      24.58243212        1       1.00000000       0.00000000       0.00000000       0.00000000       0.00000000       0.00000000       0.00000000
H        1.40307756       2.43020162      24.58243212        1       1.00000000       0.00000000       0.00000000       0.00000000       0.00000000       0.00000000       0.00000000
H        4.20923268       2.43020162      24.58243212        1       1.00000000       0.00000000       0.00000000       0.00000000       0.00000000       0.00000000       0.00000000
H        2.80221376       3.22718677      26.78881899        0       1.00000000       0.00010094      -0.00018817      -0.00005997       0.00000237       0.00001551      -0.00025850
H        1.39270793       0.82466501      26.81310243        0       1.00000000      -0.00010309       0.00015491      -0.00003129       0.00014775       0.00032875      -0.00012658
H        4.21534406       2.41096831      29.01617638        0       1.00000000      -0.00000531      -0.00005507       0.00007064       0.00005025       0.00016341       0.00016343
H        0.01015383       3.25479235      26.81303823        0       1.00000000       0.00001647      -0.00010452       0.00006633      -0.00009160      -0.00012987      -0.00002957
H        4.21294907       0.79698774      26.78880736        0       1.00000000       0.00001083      -0.00018700       0.00017379       0.00005024      -0.00007722      -0.00033887
H        2.79992243       4.84110401      29.01618800        0       1.00000000      -0.00002584      -0.00006940       0.00006713      -0.00004595      -0.00015744      -0.00008484
18
Lattice="5.612310241546866 0.0 0.0 0.0 4.860403243099165 0.0 0.0 0.0 44.58243212332868" Properties=species:S:1:pos:R:3:tags:I:1:masses:R:1:momenta:R:3:forces:R:3 KEmax=23.26679191048647 iter=83438 volume=1216.1236359717223 set_wall=T ns_energy=-11.645792580123366 last_walked_iter_clone=83261 energy=-11.645792661261156 stress="0.022427324972837677 -1.3895994802886318e-06 -1.0598946748285051e-06 -1.3895994802886318e-06 0.022410235296801938 -1.4338884339898118e-06 -1.0598946748285051e-06 -1.4338884339898118e-06 0.011578652939949486" pbc="T T F"
H        1.40307756       0.81006721      20.00000000        3       1.00000000       0.00000000       0.00000000       0.00000000       0.00000000       0.00000000       0.00000000
H        4.20923268       0.81006721      20.00000000        3       1.00000000       0.00000000       0.00000000       0.00000000       0.00000000       0.00000000       0.00000000
H        0.00000000       3.24026883      20.00000000        3       1.00000000       0.00000000       0.00000000       0.00000000       0.00000000       0.00000000       0.00000000
H        2.80615512       3.24026883      20.00000000        3       1.00000000       0.00000000       0.00000000       0.00000000       0.00000000       0.00000000       0.00000000
H        0.00000000       1.62013441      22.29121606        2       1.00000000       0.00000000       0.00000000       0.00000000       0.00000000       0.00000000       0.00000000
H        2.80615512       1.62013441      22.29121606        2       1.00000000       0.00000000       0.00000000       0.00000000       0.00000000       0.00000000       0.00000000
H        1.40307756       4.05033604      22.29121606        2       1.00000000       0.00000000       0.00000000       0.00000000       0.00000000       0.00000000       0.00000000
H        4.20923268       4.05033604      22.29121606        2       1.00000000       0.00000000       0.00000000       0.00000000       0.00000000       0.00000000       0.00000000
H        0.00000000       0.00000000      24.58243212        1       1.00000000       0.00000000       0.00000000       0.00000000       0.00000000       0.00000000       0.00000000
H        2.80615512       0.00000000      24.58243212        1       1.00000000       0.00000000       0.00000000       0.00000000       0.00000000       0.00000000       0.00000000
H        1.40307756       2.43020162      24.58243212        1       1.00000000       0.00000000       0.00000000       0.00000000       0.00000000       0.00000000       0.00000000
H        4.20923268       2.43020162      24.58243212        1       1.00000000       0.00000000       0.00000000       0.00000000       0.00000000       0.00000000       0.00000000
H        2.80230971       3.22736579      26.78870819        0       1.00000000       0.00001887      -0.00014676       0.00009596       0.00000237       0.00001551      -0.00025850
H        1.39267268       0.82478854      26.81312621        0       1.00000000       0.00012095      -0.00006565      -0.00005139       0.00014775       0.00032875      -0.00012658