6
Lattice="14.985 0.0 0.0 0.0 14.985 0.0 0.0 0.0 14.985" Properties=species:S:1:pos:R:3:masses:R:1:momenta:R:3:forces:R:3 ns_energy=-1.2265196200426707 volume=3364.885121624996 KEmax=7.755599159999999 last_walked_iter_clone=11952 iter=11999 energy=-1.2380213263476438 stress="-4.930736221778395e-05 -2.274618418708385e-05 -8.863220751220883e-06 -2.274618418708385e-05 -0.00011212981386131266 -4.027590155826089e-05 -8.863220751220883e-06 -4.027590155826089e-05 -0.00016911373234704456" pbc="T T T"
H       12.45251309       3.32995680       1.00511859       1.00000000       0.07062563      -0.06366587      -0.01454751      -0.03148370       0.06678573       0.10449951
H       11.33856004       4.68141298      13.86433232       1.00000000       0.01939823      -0.04328382       0.02113519       0.04323920       0.10194371       0.12607367
H       12.67010636       6.11038947       0.99487674       1.00000000      -0.02281270       0.00535295      -0.00247030       0.02493607       0.01448801      -0.05685167
H       13.88057386       5.84699143      13.47235359       1.00000000      -0.03272857      -0.04977916       0.00589957      -0.12350758      -0.08784983      -0.04561282
H       13.70738534       3.09833980      13.57466842       1.00000000      -0.01867973      -0.02318422      -0.05947240       0.01641697      -0.11047013       0.00041470
H       14.91297654       4.47193465       0.85013186       1.00000000       0.03797647      -0.05962409       0.03838173       0.07039903       0.01510251      -0.12852339
6
Lattice="14.985 0.0 0.0 0.0 14.985 0.0 0.0 0.0 14.985" Properties=species:S:1:pos:R:3:masses:R:1:momenta:R:3:forces:R:3 ns_energy=-1.2262921380828262 volume=3364.885121624996 KEmax=7.755599159999999 last_walked_iter_clone=11980 iter=11999 energy=-1.2380213263476438 stress="-4.930736221778395e-05 -2.274618418708385e-05 -8.863220751220883e-06 -2.274618418708385e-05 -0.00011212981386131266 -4.027590155826089e-05 -8.863220751220883e-06 -4.027590155826089e-05 -0.00016911373234704456" pbc="T T T"
H        9.70668908      13.95832652      10.43021400       1.00000000       0.05267605      -0.02264505      -0.01207051      -0.03148370       0.06678573       0.10449951
H        7.19272703      12.93156391      11.07913961       1.00000000      -0.01418668      -0.02286146       0.07181834       0.04323920       0.10194371       0.12607367
H        7.59549361       0.18567827       9.24303365       1.00000000       0.02164796      -0.03927191      -0.03389918       0.02493607       0.01448801      -0.05685167
H        6.74900950      12.64566682       8.34948695       1.00000000       0.03121648      -0.06085225       0.08583869      -0.12350758      -0.08784983      -0.04561282
H        8.89948369      11.40843929       9.47732768       1.00000000      -0.00629466      -0.08180996      -0.01307331       0.01641697      -0.11047013       0.00041470
H        9.26859395      13.60800611       7.74115330       1.00000000       0.06236841      -0.00795928       0.03957985       0.07039903       0.01510251      -0.12852339
6
Lattice="14.985 0.0 0.0 0.0 14.985 0.0 0.0 0.0 14.985" Properties=species:S:1:pos:R:3:masses:R:1:momenta:R:3:forces:R:3 ns_energy=-1.2273574380987133 volume=3364.885121624996 KEmax=7.755599159999999 last_walked_iter_clone=11738 iter=11999 energy=-1.2380213263476438 stress="-4.930736221778395e-05 -2.274618418708385e-05 -8.863220751220883e-06 -2.274618418708385e-05 -0.00011212981386131266 -4.027590155826089e-05 -8.863220751220883e-06 -4.027590155826089e-05 -0.00016911373234704456" pbc="T T T"
H        2.63604521       2.20424417      15.01140105       1.00000000       0.01505221       0.01066275      -0.05429586      -0.03148370       0.06678573       0.10449951
H       14.41420547       4.56621531       0.22649241       1.00000000       0.10639240      -0.05389881      -0.07559712       0.04323920       0.10194371       0.12607367
H        2.14489084       4.99428739       0.40976203       1.00000000      -0.03752418       0.04668419      -0.07541767       0.02493607       0.01448801      -0.05685167
H        0.94937827       3.01711112       2.03283393       1.00000000       0.01798848       0.00686147      -0.01342923      -0.12350758      -0.08784983      -0.04561282
H       14.67741292       1.79956797      14.87250338       1.00000000      -0.00592427       0.04525328      -0.00460493       0.01641697      -0.11047013       0.00041470
H        1.07486834       3.60001371      13.20423148       1.00000000      -0.02402143      -0.04530843       0.03226052       0.07039903       0.01510251      -0.12852339
6
Lattice="14.985 0.0 0.0 0.0 14.985 0.0 0.0 0.0 14.985" Properties=species:S:1:pos:R:3:masses:R:1:momenta:R:3:forces:R:3 ns_energy=-1.2258570704892515 volume=3364.885121624996 KEmax=7.755599159999999 last_walked_iter_clone=11946 iter=11999 energy=-1.2380213263476438 stress="-4.930736221778395e-05 -2.274618418708385e-05 -8.863220751220883e-06 -2.274618418708385e-05 -0.00011212981386131266 -4.027590155826089e-05 -8.863220751220883e-06 -4.027590155826089e-05 -0.00016911373234704456" pbc="T T T"
H       12.34504415       4.43622823       3.01116826       1.00000000       0.04956871       0.00380483       0.04541580      -0.03148370       0.06678573       0.10449951
H       10.74336415       2.78934221       4.72035063       1.00000000       0.07540982      -0.04821631      -0.02921911       0.04323920       0.10194371       0.12607367
H       13.09088066       1.81431645       3.73769028       1.00000000      -0.01375634      -0.04627869      -0.03043619       0.02493607       0.01448801      -0.05685167
H       12.86733777       2.41310046       6.50653666       1.00000000       0.02550079      -0.04003437       0.03071624      -0.12350758      -0.08784983      -0.04561282
H       12.08315860       5.02453164       5.78360620       1.00000000      -0.06617342       0.08917493      -0.05706289       0.01641697      -0.11047013       0.00041470
H       14.43562778       3.94447290       4.89297878       1.00000000       0.00663724       0.06546436      -0.07785360       0.07039903       0.01510251      -0.12852339
6
Lattice="14.985 0.0 0.0 0.0 14.985 0.0 0.0 0.0 14.985" Properties=species:S:1:pos:R:3:masses:R:1:momenta:R:3:forces:R:3 ns_energy=-1.23816864258916 volume=3364.885121624996 KEmax=7.755599159999999 last_walked_iter_clone=11358 iter=11999 energy=-1.2380213263476438 stress="-4.930736221778395e-05 -2.274618418708385e-05 -8.863220751220883e-06 -2.274618418708385e-05 -0.00011212981386131266 -4.027590155826089e-05 -8.863220751220883e-06 -4.027590155826089e-05 -0.00016911373234704456" pbc="T T T"
H       12.41142360       2.77657063       7.97849247       1.00000000       0.02849789      -0.05262956       0.03664986      -0.03148370       0.06678573       0.10449951
H       13.61175552       4.88892612       9.36236406       1.00000000      -0.03912670       0.01975808       0.01941709       0.04323920       0.10194371       0.12607367
H       13.38295329       2.33387859      10.50672873       1.00000000       0.02446747       0.02862877      -0.01745550       0.02493607       0.01448801      -0.05685167
H        0.97771828       3.44606638       9.73108966       1.00000000      -0.01799856       0.06861545       0.01897803      -0.12350758      -0.08784983      -0.04561282
H       14.92980718       3.71891351       7.16520193       1.00000000      -0.03820217      -0.02027611      -0.01507807       0.01641697      -0.11047013       0.00041470
H       14.78678088       1.18433889       8.36539031       1.00000000       0.03646493      -0.04052028      -0.03041176       0.07039903       0.01510251      -0.12852339
6
Lattice="14.985 0.0 0.0 0.0 14.985 0.0 0.0 0.0 14.985" Properties=species:S:1:pos:R:3:masses:R:1:momenta:R:3:forces:R:3 ns_energy=-1.2302554584002785 volume=3364.885121624996 KEmax=7.755599159999999 last_walked_iter_clone=11986 iter=11999 energy=-1.2380213263476438 stress="-4.930736221778395e-05 -2.274618418708385e-05 -8.863220751220883e-06 -2.274618418708385e-05 -0.00011212981386131266 -4.027590155826089e-05 -8.863220751220883e-06 -4.027590155826089e-05 -0.00016911373234704456" pbc="T T T"
H        2.76465074      11.39273572       7.93495775       1.00000000      -0.04667224       0.03926947       0.04315198      -0.03148370       0.06678573       0.10449951
H        3.98521248      13.82363715       7.04264209       1.00000000       0.03954561       0.01260582       0.00539993       0.04323920       0.10194371       0.12607367
H        5.11013757      11.31833530       6.41094316       1.00000000      -0.00305227      -0.05325760       0.03076778       0.02493607       0.01448801      -0.05685167
H        3.91154841      13.00604408       4.40458277       1.00000000       0.02148123      -0.00140899      -0.05936884      -0.12350758      -0.08784983      -0.04561282
H        1.57103585      13.03829447       5.92692351       1.00000000      -0.01460524       0.11225238       0.05190294       0.01641697      -0.11047013       0.00041470
H        2.74719837      10.67941121       5.16891599       1.00000000      -0.02554657       0.01775945      -0.04046910       0.07039903       0.01510251      -0.12852339
6
Lattice="14.985 0.0 0.0 0.0 14.985 0.0 0.0 0.0 14.985" Properties=species:S:1:pos:R:3:masses:R:1:momenta:R:3:forces:R:3 ns_energy=-1.2273729125990032 volume=3364.885121624996 KEmax=7.755599159999999 last_walked_iter_clone=11824 iter=11999 energy=-1.2380213263476438 stress="-4.930736221778395e-05 -2.274618418708385e-05 -8.863220751220883e-06 -2.274618418708385e-05 -0.00011212981386131266 -4.027590155826089e-05 -8.863220751220883e-06 -4.027590155826089e-05 -0.00016911373234704456" pbc="T T T"
H       12.35946120       9.16217929       2.74687203       1.00000000       0.00297575      -0.04080469       0.01584070      -0.03148370       0.06678573       0.10449951
H       12.73235158       7.62383923       5.07214280       1.00000000       0.05776915       0.05246467       0.00780514       0.04323920       0.10194371       0.12607367
H       14.68979889       9.41997935       5.89460818       1.00000000      -0.02464066      -0.02873423      -0.01302554       0.02493607       0.01448801      -0.05685167
H       14.35523576      10.94352729       3.59750516       1.00000000       0.02353791      -0.12001229       0.01326680      -0.12350758      -0.08784983      -0.04561282
H       12.22488400      10.45026224       5.23821524       1.00000000       0.09736178      -0.02347291       0.04027766       0.01641697      -0.11047013       0.00041470
H       14.84439776       8.20864647       3.46491542       1.00000000      -0.01268596       0.08143238       0.00374390       0.07039903       0.01510251      -0.12852339
6
Lattice="14.985 0.0 0.0 0.0 14.985 0.0 0.0 0.0 14.985" Properties=species:S:1:pos:R:3:masses:R:1:momenta:R:3:forces:R:3 ns_energy=-1.2256466268394106 volume=3364.885121624996 KEmax=7.755599159999999 last_walked_iter_clone=11505 iter=11999 energy=-1.2380213263476438 stress="-4.930736221778395e-05 -2.274618418708385e-05 -8.863220751220883e-06 -2.274618418708385e-05 -0.00011212981386131266 -4.027590155826089e-05 -8.863220751220883e-06 -4.027590155826089e-05 -0.00016911373234704456" pbc="T T T"
H       14.10409656       6.31935285       2.29543086       1.00000000       0.04969067       0.00907609      -0.09182119      -0.03148370       0.06678573       0.10449951
H       14.33899837       6.11647914       5.10565539       1.00000000      -0.01884523       0.03559289       0.04976681       0.04323920       0.10194371       0.12607367
H        1.93205179       7.05319891       5.04288867       1.00000000       0.08809847       0.05623523      -0.06028381       0.02493607       0.01448801      -0.05685167
H        1.82027690       7.25210439       2.14292435       1.00000000       0.00565303       0.01443971       0.02672775      -0.12350758      -0.08784983      -0.04561282
H       14.88786898       8.51672792       3.86645013       1.00000000      -0.05352133       0.05045632      -0.09188880       0.01641697      -0.11047013       0.00041470
H        1.18131215       4.89239481       3.43119416       1.00000000       0.01105640      -0.03530290      -0.01157175       0.07039903       0.01510251      -0.12852339
6
Lattice="14.985 0.0 0.0 0.0 14.985 0.0 0.0 0.0 14.985" Properties=species:S:1:pos:R:3:masses:R:1:momenta:R:3:forces:R:3 ns_energy=-1.2253501168971672 volume=3364.885121624996 KEmax=7.755599159999999 last_walked_iter_clone=11805 iter=11999 energy=-1.2380213263476438 stress="-4.930736221778395e-05 -2.274618418708385e-05 -8.863220751220883e-06 -2.274618418708385e-05 -0.00011212981386131266 -4.027590155826089e-05 -8.863220751220883e-06 -4.027590155826089e-05 -0.00016911373234704456" pbc="T T T"
H       13.22790551       3.69952705       7.76056950       1.00000000       0.02247415       0.03958167       0.05344351      -0.03148370       0.06678573       0.10449951
H       13.80702335       6.35890252       7.32211973       1.00000000      -0.03354396       0.00613206      -0.09900588       0.04323920       0.10194371       0.12607367
H        0.94716049       5.59686752       5.60131050       1.00000000       0.00109762      -0.05822065       0.02522134       0.02493607       0.01448801      -0.05685167
H        0.33247016       2.95898630       6.02205076       1.00000000      -0.03031202      -0.01522053       0.06282690      -0.12350758      -0.08784983      -0.04561282
H       13.36808931       4.65465930       5.09730428       1.00000000       0.00742706       0.03250542      -0.05486323       0.01641697      -0.11047013       0.00041470
H        0.83044653       4.65616560       8.15985270       1.00000000      -0.12802104       0.06961723      -0.07362999       0.07039903       0.01510251      -0.12852339
6
Lattice="14.985 0.0 0.0 0.0 14.985 0.0 0.0 0.0 14.985" Properties=species:S:1:pos:R:3:masses:R:1:momenta:R:3:forces:R:3 ns_energy=-1.2298568565431423 volume=3364.885121624996 KEmax=7.755599159999999 last_walked_iter_clone=11987 iter=11999 energy=-1.2380213263476438 stress="-4.930736221778395e-05 -2.274618418708385e-05 -8.863220751220883e-06 -2.274618418708385e-05 -0.00011212981386131266 -4.027590155826089e-05 -8.863220751220883e-06 -4.027590155826089e-05 -0.00016911373234704456" pbc="T T T"
H       10.46384591       0.51671921       9.07583453       1.00000000       0.07093702      -0.03756546       0.01561629      -0.03148370       0.06678573       0.10449951
H        7.97639515      14.21373909       9.23367572       1.00000000       0.00580667       0.07023848      -0.03099589       0.04323920       0.10194371       0.12607367
H        9.10042393      14.96421697       6.70329058       1.00000000      -0.00553581      -0.05843316       0.09795846       0.02493607       0.01448801      -0.05685167
H        8.86771961      12.23356352       7.55192864       1.00000000      -0.02941769       0.00610156      -0.06493203      -0.12350758      -0.08784983      -0.04561282
H       10.24880349      12.76759797       9.96422376       1.00000000      -0.02986085      -0.01168997      -0.03010575       0.01641697      -0.11047013       0.00041470
H       11.28088774      13.43186264       7.45983546       1.00000000      -0.01647855       0.02316892       0.00545391       0.07039903       0.01510251      -0.12852339
6
Lattice="14.985 0.0 0.0 0.0 14.985 0.0 0.0 0.0 14.985" Properties=species:S:1:pos:R:3:masses:R:1:momenta:R:3:forces:R:3 ns_energy=-1.2279382745534997 volume=3364.885121624996 KEmax=7.755599159999999 last_walked_iter_clone=11928 iter=11999 energy=-1.2380213263476438 stress="-4.930736221778395e-05 -2.274618418708385e-05 -8.863220751220883e-06 -2.274618418708385e-05 -0.00011212981386131266 -4.027590155826089e-05 -8.863220751220883e-06 -4.027590155826089e-05 -0.00016911373234704456" pbc="T T T"
H       14.56888299       1.73332226       3.21224206       1.00000000      -0.09241860      -0.05872613       0.03724545      -0.03148370       0.06678573       0.10449951
H       12.98446244       4.88816403       1.26587674       1.00000000      -0.06665869      -0.02041444       0.05282816       0.04323920       0.10194371       0.12607367
H       14.14113145       4.46251854       3.78666382       1.00000000      -0.02481869      -0.00506637       0.00075429       0.02493607       0.01448801      -0.05685167
H       12.01328614       2.80983336       2.81823543       1.00000000       0.00624059       0.05038415       0.04256547      -0.12350758      -0.08784983      -0.04561282
H       13.50313768       2.12701121       0.51738758       1.00000000      -0.00871320       0.05107152      -0.02693609       0.01641697      -0.11047013       0.00041470
H        0.55470141       3.77379726       1.55409877       1.00000000      -0.07992891      -0.01329703      -0.00361589       0.07039903       0.01510251      -0.12852339
6
Lattice="14.985 0.0 0.0 0.0 14.985 0.0 0.0 0.0 14.985" Properties=species:S:1:pos:R:3:masses:R:1:momenta:R:3:forces:R:3 ns_energy=-1.2256273800158262 volume=3364.885121624996 KEmax=7.755599159999999 last_walked_iter_clone=11949 iter=11999 energy=-1.2380213263476438 stress="-4.930736221778395e-05 -2.274618418708385e-05 -8.863220751220883e-06 -2.274618418708385e-05 -0.00011212981386131266 -4.027590155826089e-05 -8.863220751220883e-06 -4.027590155826089e-05 -0.00016911373234704456" pbc="T T T"
H        2.58306904       3.18271042      13.52263070       1.00000000      -0.02279074      -0.09950289       0.03740115      -0.03148370       0.06678573       0.10449951
H       13.75165009       1.68045834      13.35704873       1.00000000       0.05530486       0.05142948       0.01293977       0.04323920       0.10194371       0.12607367
H        0.11568249       4.09283842      12.44875899       1.00000000      -0.03117003      -0.00166226       0.07193392       0.02493607       0.01448801      -0.05685167
H        0.21344224       3.32404534       0.09832347       1.00000000      -0.03613989       0.00688348       0.01631118      -0.12350758      -0.08784983      -0.04561282
H        1.31037055       0.88197778      14.48198253       1.00000000      -0.07511964       0.00710149       0.05869095       0.01641697      -0.11047013       0.00041470
H        1.00696976       1.55959516      11.80656773       1.00000000       0.07511696       0.00617092      -0.03636505       0.07039903       0.01510251      -0.12852339
6
Lattice="14.985 0.0 0.0 0.0 14.985 0.0 0.0 0.0 14.985" Properties=species:S:1:pos:R:3:masses:R:1:momenta:R:3:forces:R:3 ns_energy=-1.2263780222336536 volume=3364.885121624996 KEmax=7.755599159999999 last_walked_iter_clone=11942 iter=11999 energy=-1.2380213263476438 stress="-4.930736221778395e-05 -2.274618418708385e-05 -8.863220751220883e-06 -2.274618418708385e-05 -0.00011212981386131266 -4.027590155826089e-05 -8.863220751220883e-06 -4.027590155826089e-05 -0.00016911373234704456" pbc="T T T"
H       11.22568724       2.79385508       7.03927906       1.00000000       0.00287370       0.06600773      -0.06852720      -0.03148370       0.06678573       0.10449951
H       11.37579236       0.24532620       6.00069198       1.00000000       0.06697696       0.05353928      -0.08560291       0.04323920       0.10194371       0.12607367
H       13.74078564       1.71419096       6.49447664       1.00000000      -0.05425332      -0.05066813       0.01398720       0.02493607       0.01448801      -0.05685167
H       13.02579697      14.54881525       8.14222015       1.00000000       0.04645671      -0.05677740      -0.06800844      -0.12350758      -0.08784983      -0.04561282
H       10.53855672       0.69096026       8.61834269       1.00000000       0.00733347      -0.09278890       0.01344096       0.01641697      -0.11047013       0.00041470
H       12.89212834       2.11516775       9.18703588       1.00000000      -0.00677727      -0.10193251      -0.02244718       0.07039903       0.01510251      -0.12852339
6
Lattice="14.985 0.0 0.0 0.0 14.985 0.0 0.0 0.0 14.985" Properties=species:S:1:pos:R:3:masses:R:1:momenta:R:3:forces:R:3 ns_energy=-1.2263159216402832 volume=3364.885121624996 KEmax=7.755599159999999 last_walked_iter_clone=11927 iter=11999 energy=-1.2380213263476438 stress="-4.930736221778395e-05 -2.274618418708385e-05 -8.863220751220883e-06 -2.274618418708385e-05 -0.00011212981386131266 -4.027590155826089e-05 -8.863220751220883e-06 -4.027590155826089e-05 -0.00016911373234704456" pbc="T T T"
H        0.27635092       2.26049884       2.90551214       1.00000000      -0.01866146      -0.05557533       0.07455371      -0.03148370       0.06678573       0.10449951
H       14.05643217       5.57206757       1.14728493       1.00000000      -0.04379810      -0.01826144      -0.08291106       0.04323920       0.10194371       0.12607367
H        0.72132763       5.00321829       3.24602634       1.00000000      -0.09949198      -0.04982065       0.01398621       0.02493607       0.01448801      -0.05685167
H       13.12659374       4.02875381       3.28571381       1.00000000      -0.03944555       0.00277951       0.04358069      -0.12350758      -0.08784983      -0.04561282
H       13.53552381       2.77582882       0.70857074       1.00000000      -0.04779216      -0.04303048      -0.04803359       0.01641697      -0.11047013       0.00041470
H        1.17827900       3.76955473       0.70326812       1.00000000       0.03479732       0.05978513      -0.03226377       0.07039903       0.01510251      -0.12852339
6
Lattice="14.985 0.0 0.0 0.0 14.985 0.0 0.0 0.0 14.985" Properties=species:S:1:pos:R:3:masses:R:1:momenta:R:3:forces:R:3 ns_energy=-1.2260823911244607 volume=3364.885121624996 KEmax=7.755599159999999 last_walked_iter_clone=11938 iter=11999 energy=-1.2380213263476438 stress="-4.930736221778395e-05 -2.274618418708385e-05 -8.863220751220883e-06 -2.274618418708385e-05 -0.00011212981386131266 -4.027590155826089e-05 -8.863220751220883e-06 -4.027590155826089e-05 -0.00016911373234704456" pbc="T T T"
H       10.88038639      14.76403568      11.60928226       1.00000000      -0.02557628       0.03778092      -0.00354700      -0.03148370       0.06678573       0.10449951
H        8.25913139      14.83466137      12.52456755       1.00000000       0.13908233       0.03418383       0.05864842       0.04323920       0.10194371       0.12607367
H       10.16166026      13.51596638      14.04087596       1.00000000       0.01547992      -0.01099398      -0.07606031       0.02493607       0.01448801      -0.05685167
H        9.14332314       1.01096541      14.98196937       1.00000000      -0.02272958      -0.02447368      -0.00894552      -0.12350758      -0.08784983      -0.04561282
H        9.73321551       2.17652557      12.56857480       1.00000000       0.02368103      -0.02211528       0.04649588       0.01641697      -0.11047013       0.00041470
H       11.77425016       0.91881123      13.94956800       1.00000000      -0.00856955      -0.09686725       0.06984716       0.07039903       0.01510251      -0.12852339
6
Lattice="14.985 0.0 0.0 0.0 14.985 0.0 0.0 0.0 14.985" Properties=species:S:1:pos:R:3:masses:R:1:momenta:R:3:forces:R:3 ns_energy=-1.2270364412115897 volume=3364.885121624996 KEmax=7.755599159999999 last_walked_iter_clone=11846 iter=11999 energy=-1.2380213263476438 stress="-4.930736221778395e-05 -2.274618418708385e-05 -8.863220751220883e-06 -2.274618418708385e-05 -0.00011212981386131266 -4.027590155826089e-05 -8.863220751220883e-06 -4.027590155826089e-05 -0.00016911373234704456" pbc="T T T"
H        0.64323242       3.09400634       9.80225849       1.00000000      -0.02054612       0.01165680      -0.02574250      -0.03148370       0.06678573       0.10449951
H        2.61495963       2.89124517       7.92275670       1.00000000       0.06963671       0.08121685       0.01570624       0.04323920       0.10194371       0.12607367
H        1.34939814       0.51411829       9.03347636       1.00000000      -0.01407673       0.01176828       0.06095039       0.02493607       0.01448801      -0.05685167
H        0.92892404       1.20684256       6.40844917       1.00000000      -0.06330751       0.02961004      -0.03209625      -0.12350758      -0.08784983      -0.04561282
H       -0.00105980       3.80871930       7.25770681       1.00000000       0.04776905       0.06886821       0.00711496       0.01641697      -0.11047013       0.00041470
H       13.82391609       1.47257513       8.29960340       1.00000000       0.01362822       0.01861898       0.04729536       0.07039903       0.01510251      -0.12852339
6
Lattice="14.985 0.0 0.0 0.0 14.985 0.0 0.0 0.0 14.985" Properties=species:S:1:pos:R:3:masses:R:1:momenta:R:3:forces:R:3 ns_energy=-1.2295315259033623 volume=3364.885121624996 KEmax=7.755599159999999 last_walked_iter_clone=11925 iter=11999 energy=-1.2380213263476438 stress="-4.930736221778395e-05 -2.274618418708385e-05 -8.863220751220883e-06 -2.274618418708385e-05 -0.00011212981386131266 -4.027590155826089e-05 -8.863220751220883e-06 -4.027590155826089e-05 -0.00016911373234704456" pbc="T T T"
H        1.52187620       2.19539598       1.58008832       1.00000000       0.06704113       0.00723275      -0.02517505      -0.03148370       0.06678573       0.10449951
H        0.31139333       5.60037805      14.94487627       1.00000000      -0.06997461       0.08664605       0.09358951       0.04323920       0.10194371       0.12607367
H        1.79287544       4.94894527       2.24770797       1.00000000      -0.05867890      -0.02556298      -0.04947988       0.02493607       0.01448801      -0.05685167
H       14.28305328       3.84495504       1.88581837       1.00000000       0.00545026      -0.05646366       0.05098863      -0.12350758      -0.08784983      -0.04561282
H        0.00786070       2.91715436      14.38480810       1.00000000      -0.02386669       0.03029172       0.00339257       0.01641697      -0.11047013       0.00041470
H        2.62981079       3.93260255      14.64754022       1.00000000      -0.00901193      -0.00670514      -0.03441451       0.07039903       0.01510251      -0.12852339
6
Lattice="14.985 0.0 0.0 0.0 14.985 0.0 0.0 0.0 14.985" Properties=species:S:1:pos:R:3:masses:R:1:momenta:R:3:forces:R:3 ns_energy=-1.2310094431856293 volume=3364.885121624996 KEmax=7.755599159999999 last_walked_iter_clone=11950 iter=11999 energy=-1.2380213263476438 stress="-4.930736221778395e-05 -2.274618418708385e-05 -8.863220751220883e-06 -2.274618418708385e-05 -0.00011212981386131266 -4.027590155826089e-05 -8.863220751220883e-06 -4.027590155826089e-05 -0.00016911373234704456" pbc="T T T"
H        0.32737140       4.96376854       4.40323512       1.00000000      -0.03526965      -0.03157201      -0.09922108      -0.03148370       0.06678573       0.10449951
H       13.69462421       2.98779200       3.13657848       1.00000000       0.05143556       0.00140944      -0.04934247       0.04323920       0.10194371       0.12607367
H        0.82819958       4.23845286       1.77493528       1.00000000      -0.00188217       0.05654662      -0.06475442       0.02493607       0.01448801      -0.05685167
H        1.08389646       1.58321871       2.38484502       1.00000000      -0.00155656       0.01957535      -0.02497416      -0.12350758      -0.08784983      -0.04561282
H        0.52711814       2.15038917       5.07631166       1.00000000      -0.02140740      -0.01456068      -0.06144689       0.01641697      -0.11047013       0.00041470
H        2.62117018       3.42509922       3.70095083       1.00000000       0.04726661      -0.01104303      -0.05763739       0.07039903       0.01510251      -0.12852339
6
Lattice="14.985 0.0 0.0 0.0 14.985 0.0 0.0 0.0 14.985" Properties=species:S:1:pos:R:3:masses:R:1:momenta:R:3:forces:R:3 ns_energy=-1.2258168863704795 volume=3364.885121624996 KEmax=7.755599159999999 last_walked_iter_clone=11934 iter=11999 energy=-1.2380213263476438 stress="-4.930736221778395e-05 -2.274618418708385e-05 -8.863220751220883e-06 -2.274618418708385e-05 -0.00011212981386131266 -4.027590155826089e-05 -8.863220751220883e-06 -4.027590155826089e-05 -0.00016911373234704456" pbc="T T T"
H       13.01214589       6.13993838       6.98499832       1.00000000      -0.02619524       0.05703455       0.01417942      -0.03148370       0.06678573       0.10449951
H       14.60396600       6.58648670       4.68506000       1.00000000       0.01534873       0.02638146       0.02979277       0.04323920       0.10194371       0.12607367
H        1.90360198       6.54222877       6.43388853       1.00000000       0.07197156       0.04950462       0.06773490       0.02493607       0.01448801      -0.05685167
H        0.27618054       5.92389142       8.60598436       1.00000000       0.05469228       0.04434998      -0.03019870      -0.12350758      -0.08784983      -0.04561282
H        0.10741662       4.31755080       6.36506886       1.00000000       0.04518810      -0.03556562      -0.00812653       0.01641697      -0.11047013       0.00041470
H       14.77984677       8.20528366       6.97875638       1.00000000      -0.04940460       0.09911354       0.06717375       0.07039903       0.01510251      -0.12852339
6
Lattice="14.985 0.0 0.0 0.0 14.985 0.0 0.0 0.0 14.985" Properties=species:S:1:pos:R:3:masses:R:1:momenta:R:3:forces:R:3 ns_energy=-1.225522930399331 volume=3364.885121624996 KEmax=7.755599159999999 last_walked_iter_clone=11685 iter=11999 energy=-1.2380213263476438 stress="-4.930736221778395e-05 -2.274618418708385e-05 -8.863220751220883e-06 -2.274618418708385e-05 -0.00011212981386131266 -4.027590155826089e-05 -8.863220751220883e-06 -4.027590155826089e-05 -0.00016911373234704456" pbc="T T T"
H        5.13658299       1.01004437       3.92732311       1.00000000       0.00509893      -0.04248448      -0.00627776      -0.03148370       0.06678573       0.10449951