6
Lattice="14.985 0.0 0.0 0.0 14.985 0.0 0.0 0.0 14.985" Properties=species:S:1:pos:R:3:masses:R:1:momenta:R:3 ns_energy=7.104610668877686 volume=3364.885121624996 KEmax=7.755599159999999 ns_P=0.0 iter=99 config_n_global=99 ns_KE=7.141653465624473 pbc="T T T"
H       14.44702576      13.80379938      11.67011686       1.00000000      -1.68717443      -1.18503502       0.20805007
H       13.47085996       6.93459786       1.23570138       1.00000000       1.83788047       0.47960412       0.42493653
H       11.78423529       1.91607361       0.23278108       1.00000000       0.70388245      -0.41275689      -0.85932046
H        7.66267386      13.85668472       0.07497728       1.00000000       0.80425623       0.27370852      -0.17786322
H       14.76399411       0.35279323       2.31648189       1.00000000      -0.30257756      -0.56261948       1.47660207
H        6.52285122       6.41418106       7.40094282       1.00000000      -0.35777035      -1.06320482       0.44303374
6
Lattice="14.985 0.0 0.0 0.0 14.985 0.0 0.0 0.0 14.985" Properties=species:S:1:pos:R:3:masses:R:1:momenta:R:3 ns_energy=6.434416769459709 volume=3364.885121624996 KEmax=7.755599159999999 last_walked_iter_clone=123 ns_P=0.0 iter=199 config_n_global=199 ns_KE=6.4472314918153 pbc="T T T"
H        1.12242701       3.90287165       0.78541414       1.00000000      -0.16310266      -1.23600671      -1.61283801
H        9.44160736       6.79645637      13.96535948       1.00000000       1.15625674       1.45772402       0.50305413
H        8.57243756      10.10690108       9.14775035       1.00000000      -0.01263411       0.43219423       0.19832081
H        4.86844385       0.48833957       3.00975058       1.00000000      -0.14215441       0.48883943       1.20097190
H        7.50875175      10.55841085       2.79735742       1.00000000      -1.26501367      -0.09878639      -0.22741305
H       13.95930526       8.02541177       9.06663342       1.00000000      -0.23552929       0.61429867      -1.00079425
6
Lattice="14.985 0.0 0.0 0.0 14.985 0.0 0.0 0.0 14.985" Properties=species:S:1:pos:R:3:masses:R:1:momenta:R:3 ns_energy=5.780171236821021 volume=3364.885121624996 KEmax=7.755599159999999 ns_P=0.0 iter=299 config_n_global=299 ns_KE=5.7933259073079 pbc="T T T"
H       13.15098731       8.07927043       7.87451685       1.00000000       0.89664653      -0.07893279       0.67705715
H        8.15523074       7.73853838      13.28199011       1.00000000      -0.20569989      -0.21418078       1.00436382
H        6.14676306      12.28053428      12.47077181       1.00000000      -0.76175428      -0.42630961      -1.53883849
H        8.90380216       2.97327393      11.61793462       1.00000000      -0.64998532      -0.78916026      -0.64396566
H        0.08138813       0.79040396       8.70853152       1.00000000      -0.13827514      -0.40417396       0.72715707
H        3.77582213       3.95861648       0.65953862       1.00000000       1.73800533      -0.56116146       0.76441405
6
Lattice="14.985 0.0 0.0 0.0 14.985 0.0 0.0 0.0 14.985" Properties=species:S:1:pos:R:3:masses:R:1:momenta:R:3 ns_energy=5.316044289390498 volume=3364.885121624996 KEmax=7.755599159999999 last_walked_iter_clone=365 ns_P=0.0 iter=399 config_n_global=399 ns_KE=5.410436642460991 pbc="T T T"
H       11.56742686       2.01400361       2.10995010       1.00000000      -0.32571824      -1.29480129       1.24355290
H        2.03178853      13.50569214      13.29265090       1.00000000      -0.28311115       0.18880196      -1.08385489
H        9.10211611       1.67071559       6.19449715       1.00000000      -0.87169443      -0.43864144       0.61229623
H       12.87730985       4.65805363       0.36588635       1.00000000      -0.79454014      -0.09269079      -0.13672762
H        6.86021708       9.02011617      11.38263675       1.00000000      -1.45148777       0.57488835      -0.90918665
H        0.47599567       0.33424196      14.13172882       1.00000000       0.74169873      -0.62358178       0.11250770
6
Lattice="14.985 0.0 0.0 0.0 14.985 0.0 0.0 0.0 14.985" Properties=species:S:1:pos:R:3:masses:R:1:momenta:R:3 ns_energy=4.824769078598795 volume=3364.885121624996 KEmax=7.755599159999999 last_walked_iter_clone=346 ns_P=0.0 iter=499 config_n_global=499 ns_KE=4.867357146400055 pbc="T T T"
H       14.56974675      12.99343562       5.70018270       1.00000000       1.08105533       0.73291716      -0.11653168
H        2.05226431       4.26473178      13.04770832       1.00000000       0.37058983      -0.60773116      -0.44559699
H        3.07854054       9.03388348       6.35271919       1.00000000       0.06971775      -0.54244759      -0.97296383
H        3.93785335       7.37856147       3.03967768       1.00000000       0.32245871       0.72246561      -0.91867254
H        2.39216099      13.59036330      10.14371799       1.00000000      -0.12101561      -0.13858021       0.91095546
H       12.54477944      10.46074175      11.63783463       1.00000000       0.03051469       1.59871725      -1.08345499
6
Lattice="14.985 0.0 0.0 0.0 14.985 0.0 0.0 0.0 14.985" Properties=species:S:1:pos:R:3:masses:R:1:momenta:R:3 ns_energy=4.366963354745347 volume=3364.885121624996 KEmax=7.755599159999999 last_walked_iter_clone=566 ns_P=0.0 iter=599 config_n_global=599 ns_KE=4.535393691661135 pbc="T T T"
H        7.92804388      11.82898123       7.99221505       1.00000000       0.32609072      -1.04780476      -0.50961384
H        5.36793362      13.00157318      13.12208622       1.00000000      -0.88360225       0.50732743      -0.06306824
H        2.03684155       7.66148756       9.43640968       1.00000000       0.85632250       0.61326805       0.22294814
H       12.73648538      10.47204080      10.61003306       1.00000000       0.61606008       0.07186350       0.42283009
H        3.64729820      11.45290401       1.09667234       1.00000000       0.38734060       1.36409857      -1.42885593
H        0.74555692       9.92341761       9.10829588       1.00000000       0.78908507       0.18425702       0.36487692
6
Lattice="14.985 0.0 0.0 0.0 14.985 0.0 0.0 0.0 14.985" Properties=species:S:1:pos:R:3:masses:R:1:momenta:R:3 ns_energy=4.066811069862155 volume=3364.885121624996 KEmax=7.755599159999999 last_walked_iter_clone=279 ns_P=0.0 iter=699 config_n_global=699 ns_KE=4.15170137886121 pbc="T T T"
H        4.85041274      12.93669702      15.07034727       1.00000000       0.44468618      -0.69672190       0.27742775
H       13.50327709      10.79487600      11.10820697       1.00000000      -0.92054452       0.28920325      -1.23684373
H        8.60502931       7.89492050      13.03600568       1.00000000      -0.36614248       1.27835158      -0.07787892
H        7.29556900      12.29949359       1.94504820       1.00000000       1.13622389       0.04403042      -0.85763065
H        5.35589193       3.97327436       5.99815008       1.00000000       0.36112843      -0.02465489      -0.23071788
H        9.55306783       8.81493692       0.16501037       1.00000000      -0.35106921       0.78941707      -0.59074787
6
Lattice="14.985 0.0 0.0 0.0 14.985 0.0 0.0 0.0 14.985" Properties=species:S:1:pos:R:3:masses:R:1:momenta:R:3 ns_energy=3.735796178552708 volume=3364.885121624996 KEmax=7.755599159999999 last_walked_iter_clone=714 ns_P=0.0 iter=799 config_n_global=799 ns_KE=3.8942798712681146 pbc="T T T"
H        0.71895878      11.59764812       0.26483957       1.00000000       0.23060589       0.36778193       0.58738099
H        5.31862718       7.98412432       6.40798993       1.00000000      -0.78625502      -0.55389669       1.40081817
H       12.30804024      14.00036508       8.17520674       1.00000000       0.77427794       0.54462912       0.58767664
H        1.43769517       8.84664390       2.40660034       1.00000000       0.57066519       0.81719868       0.29485560
H       12.85498193      12.77085154      14.77614937       1.00000000       0.09022211       0.96919994      -0.41219366
H        2.60883894       6.34494172      -0.11876353       1.00000000      -0.61415233      -0.50826263      -0.54129585
6
Lattice="14.985 0.0 0.0 0.0 14.985 0.0 0.0 0.0 14.985" Properties=species:S:1:pos:R:3:masses:R:1:momenta:R:3 ns_energy=3.3817780235528154 volume=3364.885121624996 KEmax=7.755599159999999 last_walked_iter_clone=889 ns_P=0.0 iter=899 config_n_global=899 ns_KE=3.50365764897681 pbc="T T T"
H       10.03733649      13.74770423       6.85125517       1.00000000       0.17285830      -0.66653725       1.05759747
H       13.58713376       4.58883763       6.77745810       1.00000000       0.12698897       0.59199124      -0.85869290
H        7.64875137       3.15195663       4.70252645       1.00000000      -0.70044576       0.59211180       0.44471586
H       13.35214922      10.75334337      10.45390439       1.00000000       0.16376481       1.00235221      -0.27168971
H       12.02741438       2.44593063       6.43240634       1.00000000       0.63506536       0.81374133      -0.55641695
H       11.91764580      14.93779085      13.66270950       1.00000000      -0.69384861      -0.55306406      -0.06318340
6
Lattice="14.985 0.0 0.0 0.0 14.985 0.0 0.0 0.0 14.985" Properties=species:S:1:pos:R:3:masses:R:1:momenta:R:3 ns_energy=3.044930990700992 volume=3364.885121624996 KEmax=7.755599159999999 last_walked_iter_clone=722 ns_P=0.0 iter=999 config_n_global=999 ns_KE=3.216414502687619 pbc="T T T"
H        7.55905881      10.51939572       4.78637549       1.00000000      -0.04919554      -0.42646139      -0.24863093
H       10.97733188      10.23142184      12.84635307       1.00000000       0.02523838      -1.30438317       0.10709926
H        1.69842641       8.41308077       4.98133574       1.00000000      -0.32197085      -0.33083709      -0.76687163
H        2.85343274      12.71674081       9.73346336       1.00000000       0.15457070       0.43869926       0.95713051
H        0.48751370      12.34982712       8.21572364       1.00000000       0.27268537      -0.68333377      -0.48660684
H       12.01046277       8.38939464      10.34581546       1.00000000      -1.08998854       0.19194220       0.73248592
6
Lattice="14.985 0.0 0.0 0.0 14.985 0.0 0.0 0.0 14.985" Properties=species:S:1:pos:R:3:masses:R:1:momenta:R:3 ns_energy=2.759428968363802 volume=3364.885121624996 KEmax=7.755599159999999 last_walked_iter_clone=1075 ns_P=0.0 iter=1099 config_n_global=1099 ns_KE=2.9546066849111106 pbc="T T T"
H        0.72671467      11.42976586       4.04103113       1.00000000      -0.05886485      -0.22310141      -1.10567833
H       14.57839529       3.12397492       6.13113411       1.00000000       0.74393099       0.59224328      -0.29377599
H       12.76757439      11.84610746       5.58450381       1.00000000      -0.82979480       1.24072611       0.09222154
H       10.49256742       0.87762853      12.24149556       1.00000000       0.62943774      -0.27094150      -0.02258552
H        0.97297874       9.20496339       7.90905525       1.00000000       0.26717153       0.84918324       0.12407758
H       13.59011208      12.22073286       1.98877677       1.00000000       0.05502882       0.35403873      -0.01110487
6
Lattice="14.985 0.0 0.0 0.0 14.985 0.0 0.0 0.0 14.985" Properties=species:S:1:pos:R:3:masses:R:1:momenta:R:3 ns_energy=2.4844419309835217 volume=3364.885121624996 KEmax=7.755599159999999 last_walked_iter_clone=1118 ns_P=0.0 iter=1199 config_n_global=1199 ns_KE=2.561888166295573 pbc="T T T"
H       12.20855192       4.09425022      12.65818890       1.00000000      -0.68389163      -0.45361312       0.38978216
H       11.66535354       3.46061375       4.13722293       1.00000000      -0.62466974       0.36292440       0.50081258
H       10.87713988       0.25122022       6.09664240       1.00000000       0.15993162       0.39778563      -0.26463382
H        4.18522053      12.29622852      13.73566259       1.00000000       1.46538435       0.03599447      -0.10729192
H       14.32678885      14.26434404       7.69498920       1.00000000       0.05337962       0.14427658      -0.00512327
H        9.96258204      14.01463735      10.03536617       1.00000000       0.30617052       0.98525114      -0.15323611
6
Lattice="14.985 0.0 0.0 0.0 14.985 0.0 0.0 0.0 14.985" Properties=species:S:1:pos:R:3:masses:R:1:momenta:R:3 ns_energy=2.2410519685698804 volume=3364.885121624996 KEmax=7.755599159999999 last_walked_iter_clone=1222 ns_P=0.0 iter=1299 config_n_global=1299 ns_KE=2.4091273949742065 pbc="T T T"
H        9.50279912       6.63178524       1.37025739       1.00000000       0.09511508      -0.40595270       1.27231710
H       14.85207855      11.01556620       5.79345106       1.00000000       0.50651687      -0.38783799      -0.20844584
H        2.67952875      13.85084726       5.65505710       1.00000000      -0.14386728      -0.26517015       0.64441305
H       11.69898872       2.38548940       1.32724797       1.00000000      -0.21407779      -0.26666365      -0.28129321
H        0.10506834      12.78641191       7.63788690       1.00000000       0.20631965      -0.60438699      -0.59865904
H        6.17416433      14.06716763       4.63245724       1.00000000       0.63994911       0.65132975       0.52233800
6
Lattice="14.985 0.0 0.0 0.0 14.985 0.0 0.0 0.0 14.985" Properties=species:S:1:pos:R:3:masses:R:1:momenta:R:3 ns_energy=2.071323103547013 volume=3364.885121624996 KEmax=7.755599159999999 last_walked_iter_clone=1331 ns_P=0.0 iter=1399 config_n_global=1399 ns_KE=2.1876541731316888 pbc="T T T"
H       11.25979064      12.96076452      11.84725913       1.00000000       0.04512851       0.55078342      -0.21825529
H        8.81018885       8.24024880       6.61501397       1.00000000       0.14316965      -0.80865586      -0.34133585
H        8.01600137       5.44355650       2.74527507       1.00000000       0.82277797       0.21622804      -0.10150293
H        5.05674724       2.03496948      13.29758819       1.00000000       0.09638732      -0.47922175      -0.11622622
H        7.36271742       0.70567283      14.16547685       1.00000000       0.91435812      -0.23430431       0.49923823
H        8.07784554       0.84792160       7.68650006       1.00000000       0.51035696       0.20822930       0.89490598
6
Lattice="14.985 0.0 0.0 0.0 14.985 0.0 0.0 0.0 14.985" Properties=species:S:1:pos:R:3:masses:R:1:momenta:R:3 ns_energy=1.9135072187357887 volume=3364.885121624996 KEmax=7.755599159999999 last_walked_iter_clone=1494 ns_P=0.0 iter=1499 config_n_global=1499 ns_KE=1.9839464333931984 pbc="T T T"
H        1.57403845       9.87180799       3.30395579       1.00000000      -0.19551241      -0.10544201      -0.01669997
H        6.92395328       7.24404546      12.52347801       1.00000000      -1.11786915      -0.51467674       0.21867148
H        5.04735345      13.28904483       1.65515383       1.00000000       0.30954997      -0.02351406      -0.16181162
H       11.51917824       4.45398465       7.74508295       1.00000000      -0.23516643      -0.25373566      -0.50105601
H        5.58373449       2.75993006       4.33253842       1.00000000       0.10386854      -0.08270232       0.63301130
H        4.96380811       5.72255802      10.34351225       1.00000000      -0.04871856       0.42810964      -1.12189473
6
Lattice="14.985 0.0 0.0 0.0 14.985 0.0 0.0 0.0 14.985" Properties=species:S:1:pos:R:3:masses:R:1:momenta:R:3 ns_energy=1.7222685977551782 volume=3364.885121624996 KEmax=7.755599159999999 last_walked_iter_clone=1557 ns_P=0.0 iter=1599 config_n_global=1599 ns_KE=1.76661304907684 pbc="T T T"
H       13.09196454       2.62722125      13.44191677       1.00000000      -0.35676034      -0.08922004      -0.15904854
H        1.16944442       6.01448298       3.91839740       1.00000000       0.11425039       0.45398774       0.30060468
H       12.60193326       6.14549185       0.29298493       1.00000000      -0.42842920      -0.03718867      -0.58836340
H        4.84981417       7.13657921      12.24173010       1.00000000       0.28554571      -0.40681447      -0.49042808
H       11.23428798       9.97058027      14.27206400       1.00000000      -0.92886987       0.03289052       0.31943275
H        4.68797210      13.76239100      14.65032706       1.00000000      -0.92827800      -0.03984590      -0.46400876
6
Lattice="14.985 0.0 0.0 0.0 14.985 0.0 0.0 0.0 14.985" Properties=species:S:1:pos:R:3:masses:R:1:momenta:R:3 ns_energy=1.5660881018193664 volume=3364.885121624996 KEmax=7.755599159999999 last_walked_iter_clone=1433 ns_P=0.0 iter=1699 config_n_global=1699 ns_KE=1.7061090509225483 pbc="T T T"
H        9.58652717       2.16472717      14.12232016       1.00000000       0.01084503       0.65201988      -0.99140480
H        9.37805033       8.41956511       2.35655084       1.00000000      -0.35824135      -0.36454730      -0.17240924
H        7.29005780       3.19679745       4.86684844       1.00000000      -0.30704753      -0.02072005      -0.13060667
H        6.92069200       1.00367857      13.67714685       1.00000000      -0.30301534      -0.71844500       0.15872166
H        6.55396161       0.03466279       6.44300569       1.00000000      -0.65182104      -0.24173110      -0.41800800
H       14.72896386       2.68144401      14.22732950       1.00000000       0.52262153      -0.04882712      -0.18611348
6
Lattice="14.985 0.0 0.0 0.0 14.985 0.0 0.0 0.0 14.985" Properties=species:S:1:pos:R:3:masses:R:1:momenta:R:3 ns_energy=1.449428300349649 volume=3364.885121624996 KEmax=7.755599159999999 last_walked_iter_clone=1796 ns_P=0.0 iter=1799 config_n_global=1799 ns_KE=1.469581684956559 pbc="T T T"
H        6.44818188       0.27888109      13.58893943       1.00000000      -0.28776573      -0.58016153       0.22632745
H        2.65407447       6.17726392       3.27131293       1.00000000      -0.13166754      -0.18984109       0.01162262
H        2.89028220       5.27291072       7.49219869       1.00000000       0.15554082      -0.51844520       0.22654906
H        2.01928939      13.46581849       5.95360009       1.00000000       0.42561157       0.79633589       0.79523090
H       13.22999122      14.74423934      10.21511412       1.00000000      -0.16846426       0.16837395      -0.30865641
H       13.61952505      14.93400421       2.14173194       1.00000000       0.27205319       0.13198549       0.61612394
6
Lattice="14.985 0.0 0.0 0.0 14.985 0.0 0.0 0.0 14.985" Properties=species:S:1:pos:R:3:masses:R:1:momenta:R:3 ns_energy=1.3208978310619042 volume=3364.885121624996 KEmax=7.755599159999999 last_walked_iter_clone=1859 ns_P=0.0 iter=1899 config_n_global=1899 ns_KE=1.3441499495161564 pbc="T T T"
H        7.29935164       7.02302794       9.91694079       1.00000000      -0.64751145       0.05481216      -0.32548330
H       12.57935251      14.03568089      12.85325636       1.00000000      -0.28088176       0.45669888       0.02133088
H        6.02020628      11.50659417      11.32416700       1.00000000       0.80268713      -0.19117718       0.31663551
H        4.69087196       5.84125332      13.66911301       1.00000000      -0.18862901       0.31544759       0.38047741
H        4.44202413       3.89519244       3.33971982       1.00000000       0.12540555       0.30306817      -0.33136233
H        1.68399846       1.69711823       8.15230335       1.00000000       0.59734184       0.30344648      -0.38068649
6
Lattice="14.985 0.0 0.0 0.0 14.985 0.0 0.0 0.0 14.985" Properties=species:S:1:pos:R:3:masses:R:1:momenta:R:3 ns_energy=1.1821868679946768 volume=3364.885121624996 KEmax=7.755599159999999 last_walked_iter_clone=1742 ns_P=0.0 iter=1999 config_n_global=1999 ns_KE=1.239110143208865 pbc="T T T"
H        0.75400070       4.13784052      10.78386746       1.00000000       0.21892311      -0.45407304      -0.45948157
H       13.83432893       1.14490547       7.25191857       1.00000000       0.15529382       0.24174673       0.32146002
H        7.85326564       7.29455226      10.00823791       1.00000000      -0.14862214      -0.16075953      -0.61186271
H       12.50999801       4.66016055       6.98227016       1.00000000      -0.70666315      -0.02643006       0.37794964
H        0.34075244       8.75198919       2.64983624       1.00000000      -0.17719840       0.14567334      -0.13665780
H       13.69191191      11.29500766       6.51959672       1.00000000       0.73466279      -0.35901128      -0.14816821
6
Lattice="14.985 0.0 0.0 0.0 14.985 0.0 0.0 0.0 14.985" Properties=species:S:1:pos:R:3:masses:R:1:momenta:R:3 ns_energy=1.0672957291863505 volume=3364.885121624996 KEmax=7.755599159999999 last_walked_iter_clone=2072 ns_P=0.0 iter=2099 config_n_global=2099 ns_KE=1.0989625546152966 pbc="T T T"
H        3.92277171       5.82252981       2.35119019       1.00000000      -0.11213931       0.35948383       0.11960241
H       13.75859577       8.34712445       1.08451484       1.00000000      -0.37788642      -0.27462582       0.01974381
H        9.29064814       1.60761826       4.45425440       1.00000000       0.14200669      -0.03167523      -0.54487061
H        9.35010509       9.90343227       8.33666546       1.00000000      -0.37129331      -0.18584093       0.12082245
H        5.01148842       7.93978310       5.79613568       1.00000000      -0.37907037       0.78034924       0.10738309
H        3.41396901       3.79170585       7.66627885       1.00000000      -0.04787040      -0.67030984      -0.31997673
6
Lattice="14.985 0.0 0.0 0.0 14.985 0.0 0.0 0.0 14.985" Properties=species:S:1:pos:R:3:masses:R:1:momenta:R:3 ns_energy=0.9483943608466033 volume=3364.885121624996 KEmax=7.755599159999999 last_walked_iter_clone=2196 ns_P=0.0 iter=2199 config_n_global=2199 ns_KE=1.1249249489061464 pbc="T T T"
H        5.80537396       7.51351320       9.40782749       1.00000000      -0.15011980      -0.26870665       0.60326768
H        8.06854616       2.07401222       6.52842274       1.00000000      -0.55331699      -0.44360921      -0.12491202
H        7.40705833       0.86189549       4.02435685       1.00000000       0.16240079       0.03759016       0.44501049
H       -0.16933606      -0.21175529      14.74905250       1.00000000      -0.08874276      -0.30129348       0.11718452
H       13.83543410       6.56982102       5.64225798       1.00000000      -0.14073188       0.49639987       0.25141367
H       12.20439592      14.46237131      14.71014238       1.00000000      -0.12199810       0.72894745       0.24237424
6
Lattice="14.985 0.0 0.0 0.0 14.985 0.0 0.0 0.0 14.985" Properties=species:S:1:pos:R:3:masses:R:1:momenta:R:3 ns_energy=0.8663686956157397 volume=3364.885121624996 KEmax=7.755599159999999 last_walked_iter_clone=1975 ns_P=0.0 iter=2299 config_n_global=2299 ns_KE=0.9369975827767199 pbc="T T T"
H       12.13517143      14.66083731      14.04105435       1.00000000      -0.31580999       0.03508092      -0.00705513
H        9.00056255       0.87965427       1.01265532       1.00000000      -0.23019489       0.22198476       0.03143233
H        1.15602268       3.03025842      15.17751264       1.00000000      -0.22872552       0.11453232       0.52857516
H        4.00350013      10.01688053      11.68113990       1.00000000      -0.50225357      -0.02611641      -0.09201533
H        6.93537703       9.84273637      13.82891087       1.00000000       0.25574022       0.78934850      -0.46410624
H        8.62502447       1.23894909       9.82026872       1.00000000      -0.18540876      -0.30062703       0.18673480
6
Lattice="14.985 0.0 0.0 0.0 14.985 0.0 0.0 0.0 14.985" Properties=species:S:1:pos:R:3:masses:R:1:momenta:R:3 ns_energy=0.7964713311951056 volume=3364.885121624996 KEmax=7.755599159999999 last_walked_iter_clone=2257 ns_P=0.0 iter=2399 config_n_global=2399 ns_KE=0.9212443998647687 pbc="T T T"
H        3.29825997       5.65304384       3.88041287       1.00000000       0.09704644      -0.45071444      -0.43851961
H       12.23769939       5.13671099       8.44065757       1.00000000       0.22924696       0.15608016       0.33936788
H        3.68993370       2.21273989       6.87999189       1.00000000      -0.06182766       0.33369391      -0.72990594
H        1.21249689       3.95015319       0.83429933       1.00000000      -0.19035044      -0.39749991       0.01505820
H        9.94814544       0.80543447       8.82907063       1.00000000       0.05665336      -0.03522595      -0.58717108
H        7.50483157      13.98159273       8.99721554       1.00000000      -0.13465372       0.14483987       0.12168955
6
Lattice="14.985 0.0 0.0 0.0 14.985 0.0 0.0 0.0 14.985" Properties=species:S:1:pos:R:3:masses:R:1:momenta:R:3 ns_energy=0.7208461477920522 volume=3364.885121624996 KEmax=7.755599159999999 last_walked_iter_clone=2321 ns_P=0.0 iter=2499 config_n_global=2499 ns_KE=0.8414291348946855 pbc="T T T"
H        1.94789769       1.40264413      13.60555330       1.00000000       0.09215407      -0.65782498       0.36925037
H        2.66523347       3.89434370       1.84799467       1.00000000       0.19966130       0.18877747      -0.14385320
H       13.05011279       3.87552718       4.42260839       1.00000000      -0.57290192      -0.02952192      -0.01976487
H       11.96957846      14.89989194       5.54554587       1.00000000       0.33576166      -0.09344973       0.21526100
H       13.92744471       5.70727824       7.53270234       1.00000000       0.11982658       0.35012264      -0.39716734
H       10.68288974       3.24503426       3.79894568       1.00000000       0.26686708      -0.20362753       0.32316839
6
Lattice="14.985 0.0 0.0 0.0 14.985 0.0 0.0 0.0 14.985" Properties=species:S:1:pos:R:3:masses:R:1:momenta:R:3 ns_energy=0.6423614824086428 volume=3364.885121624996 KEmax=7.755599159999999 last_walked_iter_clone=2511 ns_P=0.0 iter=2599 config_n_global=2599 ns_KE=0.7012309107748972 pbc="T T T"
H        6.91790724       5.20601018       0.54909404       1.00000000      -0.52128812       0.01850548       0.41801126
H        8.42136357       1.15362162       4.95700135       1.00000000      -0.31142590      -0.41389676       0.02391665
H       14.90706651       7.48552410       8.45266764       1.00000000       0.19627555       0.28672364       0.40289562
H        0.83290937       1.00835025       2.11621886       1.00000000      -0.41939855      -0.07551665       0.24300730
H        0.19968821       2.30967581       5.17600178       1.00000000       0.13193864      -0.09407378      -0.00855003
H        6.38400059      14.29424339      10.00286723       1.00000000       0.30403086      -0.05178419      -0.20400733
6
Lattice="14.985 0.0 0.0 0.0 14.985 0.0 0.0 0.0 14.985" Properties=species:S:1:pos:R:3:masses:R:1:momenta:R:3 ns_energy=0.5723221051569178 volume=3364.885121624996 KEmax=7.755599159999999 last_walked_iter_clone=2218 ns_P=0.0 iter=2699 config_n_global=2699 ns_KE=0.8240458822349702 pbc="T T T"
H        7.61287634       9.05963903       0.43727094       1.00000000      -0.08010188       0.10618824       0.00264088
H        8.26468268      13.73777258       5.98195582       1.00000000       0.08256745       0.08958017       0.24082044
H        2.00336308       5.97581085       1.51923511       1.00000000       0.37849051      -0.38778668       0.16381689
H        6.04690669      11.40027758       7.38490856       1.00000000      -0.07113649      -0.26996204       0.45292031
H        4.42089803       8.29620126       1.47191104       1.00000000      -0.26772378      -0.17034996      -0.43699751
H        9.24288501      12.69851284       3.35579294       1.00000000       0.80317281       0.11195498      -0.06875595
6
Lattice="14.985 0.0 0.0 0.0 14.985 0.0 0.0 0.0 14.985" Properties=species:S:1:pos:R:3:masses:R:1:momenta:R:3 ns_energy=0.5097276797806056 volume=3364.885121624996 KEmax=7.755599159999999 last_walked_iter_clone=2746 ns_P=0.0 iter=2799 config_n_global=2799 ns_KE=0.6280005397206571 pbc="T T T"
H        9.74906504       4.06524894      11.00188089       1.00000000       0.08790692       0.22231585       0.03544777
H       14.80804804       6.29246958       5.90810974       1.00000000       0.24241581      -0.49865526       0.36638818
H        1.78646581      11.50360763       8.25208270       1.00000000       0.14980935      -0.30744188       0.07711293
H        3.33224714      13.60997240       7.50482376       1.00000000      -0.57121019       0.03390534       0.04234535
H        5.97492189       6.26235005       1.70946494       1.00000000      -0.17861392      -0.28798379       0.25442892
H        7.46197797       2.51928346       1.08466112       1.00000000      -0.34012066      -0.08697560       0.03126891
6
Lattice="14.985 0.0 0.0 0.0 14.985 0.0 0.0 0.0 14.985" Properties=species:S:1:pos:R:3:masses:R:1:momenta:R:3 ns_energy=0.4596041245426562 volume=3364.885121624996 KEmax=7.755599159999999 last_walked_iter_clone=2652 ns_P=0.0 iter=2899 config_n_global=2899 ns_KE=0.5941140356109502 pbc="T T T"
H        2.10859016       1.49924074      12.99038783       1.00000000       0.20473555      -0.08438002       0.39475565
H       13.72772108      13.03386223       3.64065370       1.00000000      -0.42665952       0.07359478      -0.08613433
H        2.93738093       3.13797466       1.15391154       1.00000000      -0.32290825      -0.14377823      -0.64322502
H        0.08340916       2.63527791       8.20602049       1.00000000      -0.08048817       0.05673665      -0.11317279
H        1.88963790       4.34388889       3.99955694       1.00000000      -0.31681426      -0.02952606      -0.14769835
H        4.36362124      13.13666897      12.79011429       1.00000000       0.10172317       0.30531645       0.02600661
6
Lattice="14.985 0.0 0.0 0.0 14.985 0.0 0.0 0.0 14.985" Properties=species:S:1:pos:R:3:masses:R:1:momenta:R:3 ns_energy=0.39899556055539503 volume=3364.885121624996 KEmax=7.755599159999999 last_walked_iter_clone=2917 ns_P=0.0 iter=2999 config_n_global=2999 ns_KE=0.5149993252546097 pbc="T T T"